
         
 *******************************************************************************
 *                                                                             *
 *                               CRYSTAL17                                     *
 *                      public : 1.0.2 - March 1st, 2018                       *
 *                       HTTP://WWW.CRYSTAL.UNITO.IT                           *
 *                                                                             *
 *                              MAIN AUTHORS                                   *
 *                                                                             *
 *  R. DOVESI(1,11), V.R. SAUNDERS(2), C. ROETTI(1,11), R. ORLANDO(1,11),      *
 *  C.M. ZICOVICH-WILSON(1,3), F. PASCALE(4), B. CIVALLERI(1,11),              *
 *  K. DOLL(5), N.M. HARRISON(2,6), I.J. BUSH(7), Ph. D'ARCO(8),               *
 *  M. LLUNELL(9), M. CAUSA'(10), Y. NOEL(8), L. MASCHIO(1,11), A. ERBA(1,11)  *
 *  M. RE'RAT(14), S. CASASSA(1,11)                                            *
 *                                                                             *
 *        CONTRIBUTIONS TO THE CODE HAVE ALSO BEEN GIVEN BY                    *
 *                                                                             *
 *  M. FERRABONE(1,11), M. DE LA PIERRE(1,11), M. FERRERO(1,11),               *
 *  J. BAIMA(1,11), E. ALBANESE(1,11), M.F. PEINTINGER(12), R. BAST(13),       *
 *  B. KIRTMAN(15), V. LACIVITA(1,11), R. DEMICHELIS(1,16)                     *
 *  G. BRANDEBURG(17), S. SALUSTRO(1,11), G. SANSONE(1,11)                     *
 *  M.T. RUGGIERO(18)                                                          *
 *                                                                             *
 * (1) THEORETICAL CHEMISTRY GROUP - UNIVERSITA' DI TORINO - TORINO (ITALY)    *
 * (2) COMPUTATIONAL SCIENCE & ENGINEERING DEPARTMENT - STFC DARESBURY (UK)    *
 * (3) UNIVERSIDAD AUTONOMA DEL ESTADO DE MORELOS - CUERNAVACA (MEXICO)        *
 * (4) UNIVERSITE' DE LORRAINE - NANCY (FRANCE)                                *
 * (5) UNIVERSITAET STUTTGART- STUTTGART (GERMANY)                             *
 * (6) IMPERIAL COLLEGE - LONDON (UK)                                          *
 * (7) OXFORD E-RESEARCH CENTRE - OXFORD (UK)                                  *
 * (8) UPMC - SORBONNE UNIVERSITES - PARIS (FRANCE)                            *
 * (9) UNIVERSIDAD DE BARCELONA - BARCELONA (SPAIN)                            *
 *(10) UNIVERSITA' DI NAPOLI "FEDERICO II" - NAPOLI (ITALY)                    *
 *(11) NIS - NANOSTRUCTURED INTERFACES AND SURFACES - TORINO (ITALY)           *
 *(12) MPI FUER CHEMISCHE ENERGIEKONVERSION - MUELHEIM AN DER RUHR (GERMANY)   *
 *(13) UNIVERSITY OF TROMSO - TROMSO (NORWAY)                                  *
 *(14) UNIVERSITE' DE PAU ET DES PAYS DE L'ADOUR - PAU (FRANCE)                *
 *(15) UNIVERSITY OF CALIFORNIA SANTA BARBARA - SANTA BARBARA (USA)            *
 *(16) CURTIN UNIVERSITY - PERTH (AUSTRALIA)                                   *
 *(17) UNIVERSITY COLLEGE LONDON - LONDON (UK)                                 *
 *(18) CAMBRIDGE UNIVERSITY - CAMBRIDGE (UK)                                   *
 *                                                                             *
 *******************************************************************************
 EEEEEEEEEE STARTING  DATE 21 12 2023 TIME 11:41:07.1
 2_dia2_opt                                                                      

 CRYSTAL CALCULATION
 (INPUT ACCORDING TO THE INTERNATIONAL TABLES FOR X-RAY CRYSTALLOGRAPHY)
 CRYSTAL FAMILY                       :  HEXAGONAL   
 CRYSTAL CLASS  (GROTH - 1921)        :  DITRIGONAL SCALENOHEDRAL             

 SPACE GROUP (CENTROSYMMETRIC)        :  R -3 M          

 LATTICE PARAMETERS  (ANGSTROMS AND DEGREES) - CONVENTIONAL CELL
        A           B           C        ALPHA        BETA       GAMMA
     2.71300     2.71300    13.70530    90.00000    90.00000   120.00000


 NUMBER OF IRREDUCIBLE ATOMS IN THE CONVENTIONAL CELL:    2

 INPUT COORDINATES

 ATOM AT. N.              COORDINATES
   1   6    -3.333300000000E-01  3.333300000000E-01 -1.235400000000E-01
   2   6    -3.333300000000E-01  3.333300000000E-01 -1.921000000000E-02

 *******************************************************************************

 << INFORMATION >>: FROM NOW ON, ALL COORDINATES REFER TO THE PRIMITIVE CELL

 *******************************************************************************

 LATTICE PARAMETERS  (ANGSTROMS AND DEGREES) - PRIMITIVE CELL
       A          B          C        ALPHA      BETA     GAMMA        VOLUME
    4.82950    4.82950    4.82950    32.62524  32.62524  32.62524     29.120412

 COORDINATES OF THE EQUIVALENT ATOMS (FRACTIONAL UNITS)

 N. ATOM EQUIV AT. N.          X                  Y                  Z

   1   1   1    6 C    -4.56870000000E-01 -4.56880000000E-01 -4.56870000000E-01
   2   1   2    6 C     4.56880000000E-01  4.56870000000E-01  4.56870000000E-01

   3   2   1    6 C    -3.52540000000E-01 -3.52550000000E-01 -3.52540000000E-01
   4   2   2    6 C     3.52550000000E-01  3.52540000000E-01  3.52540000000E-01

 NUMBER OF SYMMETRY OPERATORS         :   12
 *******************************************************************************
 * GEOMETRY EDITING - INPUT COORDINATES ARE GIVEN IN ANGSTROM         
 *******************************************************************************

 GEOMETRY NOW FULLY CONSISTENT WITH THE GROUP
 INFORMATION **** NEW DEFAULT **** FINALRUN 4 FOR GEOMETRY OPTIMIZATIONS
 INFORMATION **** NEW DEFAULT **** OPTGEOM OPTIMIZES BOTH ATOMIC COORDINATES AND CELL PARAMETERS
 INFORMATION **** NEW DEFAULT **** TOL. ON ATOMIC DISP TO REDEFINE REF. GEOMETRY: 0.8 Angs
 INFORMATION **** NEW DEFAULT **** N POINTS TO REDEFINE REF. GEOMETRY: N OF OPT DEGS OF FREEDOM
 INFORMATION **** NEW DEFAULT **** TOL. ON ENERGY TO REDEFINE REF. GEOMETRY: 10**-3*(5*N. ATOMS)
 INFORMATION **** FULLOPTG **** FULL OPTIMIZATION (ATOMS AND CELL PARAMETERS)
 INFORMATION **** MAXCYCLE ****   MAXIMUM NUMBER OF OPTIMIZATION CYCLES        1600

 IMPORTANT INFORMATION:
 THE COORDINATE SYSTEM ADOPTED IN THE OPTIMIZATION IS NOT IN
 GENERAL HOMOGENEOUS UNITS. FOR THIS REASON THE GRADIENT AND 
 HESSIAN MATRIX IN TERMS OF THIS SYSTEM ARE GIVEN WITHOUT
 UNITS. FOR MORE DETAILS SEE THE MANUAL.

 *******************************************************************************
 COMBINED CELL/ATOM OPTIMIZATION CONTROL

 INITIAL TRUST RADIUS         0.50000 MAXIMUM TRUST RADIUS               4.00000
 MAXIMUM GRADIENT COMPONENT   0.00045 MAXIMUM DISPLACEMENT COMPONENT     0.00180
 R.M.S. OF GRADIENT COMPONENT 0.00030 R.M.S. OF DISPLACEMENT COMPONENTS  0.00120
 THRESHOLD ON ENERGY CHANGE 0.100E-06 EXTRAPOLATING POLYNOMIAL ORDER           2
 MAXIMUM ALLOWED NUMBER OF STEPS 1600 SORTING OF ENERGY POINTS:               NO
 ANALYTICAL  GRADIENT                 HESSIAN UPDATING                      BFGS
 STEP SIZE NUMERICAL GRADIENT 0.00100
 INITIAL HESSIAN MATRIX: SCHLEGEL MODEL 2
 *******************************************************************************


 GCALCO - MAX INDICES DIRECT LATTICE VECTOR    14    14    14
 NO.OF VECTORS CREATED 6999 STARS  509 RMAX    69.77416 BOHR

 GEOMETRY FOR WAVE FUNCTION - DIMENSIONALITY OF THE SYSTEM    3
 (NON PERIODIC DIRECTION: LATTICE PARAMETER FORMALLY SET TO 500)
 *******************************************************************************
 LATTICE PARAMETERS (ANGSTROMS AND DEGREES) - BOHR = 0.5291772083 ANGSTROM
 PRIMITIVE CELL - CENTRING CODE 7/0 VOLUME=    29.120412 - DENSITY  2.737 g/cm^3
         A              B              C           ALPHA      BETA       GAMMA 
     4.82949681     4.82949681     4.82949681    32.625242  32.625242  32.625242
 *******************************************************************************
 ATOMS IN THE ASYMMETRIC UNIT    2 - ATOMS IN THE UNIT CELL:    4
     ATOM                 X/A                 Y/B                 Z/C    
 *******************************************************************************
      1 T   6 C    -4.568733333333E-01 -4.568733333333E-01 -4.568733333333E-01
      2 F   6 C     4.568733333333E-01  4.568733333333E-01  4.568733333333E-01
      3 T   6 C    -3.525433333333E-01 -3.525433333333E-01 -3.525433333333E-01
      4 F   6 C     3.525433333333E-01  3.525433333333E-01  3.525433333333E-01

 TRANSFORMATION MATRIX PRIMITIVE-CRYSTALLOGRAPHIC CELL
  1.0000  0.0000  1.0000 -1.0000  1.0000  1.0000  0.0000 -1.0000  1.0000

 *******************************************************************************
 CRYSTALLOGRAPHIC CELL (VOLUME=         87.36123515)
         A              B              C           ALPHA      BETA       GAMMA 
     2.71300000     2.71300000    13.70530000    90.000000  90.000000 120.000000

 COORDINATES IN THE CRYSTALLOGRAPHIC CELL
     ATOM                 X/A                 Y/B                 Z/C    
 *******************************************************************************
      1 T   6 C    -3.333333333333E-01  3.333333333333E-01 -1.235400000000E-01
      2 F   6 C     3.333333333333E-01 -3.333333333333E-01  1.235400000000E-01
      3 T   6 C    -3.333333333333E-01  3.333333333333E-01 -1.921000000000E-02
      4 F   6 C     3.333333333333E-01 -3.333333333333E-01  1.921000000000E-02

 T = ATOM BELONGING TO THE ASYMMETRIC UNIT

 ****   12 SYMMOPS - TRANSLATORS IN FRACTIONAL UNITS
 **** MATRICES AND TRANSLATORS IN THE CRYSTALLOGRAPHIC REFERENCE FRAME
   V INV                    ROTATION MATRICES                   TRANSLATORS
   1   1  1.00  0.00  0.00  0.00  1.00  0.00  0.00  0.00  1.00  0.00  0.00  0.00
   2   3 -0.00 -0.00  1.00  1.00 -0.00 -0.00 -0.00  1.00  0.00  0.00  0.00  0.00
   3   2 -0.00  1.00 -0.00 -0.00  0.00  1.00  1.00 -0.00 -0.00  0.00  0.00  0.00
   4   4  0.00 -1.00  0.00 -1.00  0.00  0.00  0.00  0.00 -1.00  0.00  0.00  0.00
   5   5 -1.00  0.00  0.00  0.00 -0.00 -1.00  0.00 -1.00 -0.00  0.00  0.00  0.00
   6   6  0.00  0.00 -1.00  0.00 -1.00  0.00 -1.00  0.00  0.00  0.00  0.00  0.00
   7   7 -1.00  0.00  0.00  0.00 -1.00 -0.00  0.00 -0.00 -1.00  0.00  0.00  0.00
   8   9  0.00  0.00 -1.00 -1.00  0.00  0.00  0.00 -1.00  0.00  0.00  0.00  0.00
   9   8  0.00 -1.00  0.00  0.00  0.00 -1.00 -1.00  0.00  0.00  0.00  0.00  0.00
  10  10 -0.00  1.00 -0.00  1.00 -0.00 -0.00 -0.00  0.00  1.00  0.00  0.00  0.00
  11  11  1.00 -0.00 -0.00 -0.00  0.00  1.00 -0.00  1.00  0.00  0.00  0.00  0.00
  12  12 -0.00 -0.00  1.00 -0.00  1.00  0.00  1.00 -0.00 -0.00  0.00  0.00  0.00

 DIRECT LATTICE VECTORS CARTESIAN COMPONENTS (ANGSTROM)
          X                    Y                    Z
   0.156635128031E+01   0.000000000000E+00   0.456843333333E+01
  -0.783175640156E+00   0.135650000000E+01   0.456843333333E+01
  -0.783175640156E+00  -0.135650000000E+01   0.456843333333E+01


 CARTESIAN COORDINATES - PRIMITIVE CELL
 *******************************************************************************
 *      ATOM          X(ANGSTROM)         Y(ANGSTROM)         Z(ANGSTROM)
 *******************************************************************************
    1     6 C    -7.831756401557E-01 -1.356500000000E+00 -1.693152762000E+00
    2     6 C    -1.566351280311E+00  1.175009441523E-16  1.693152762000E+00
    3     6 C    -7.831756401557E-01 -1.356500000000E+00 -2.632788130000E-01
    4     6 C    -1.566351280311E+00 -1.175009441523E-16  2.632788130000E-01

 *******************************************************************************
 STARTING BASIS SET HANDLING 
 *******************************************************************************

 Loading internal basis set: POB-TZVP            

 Please cite in your publication:
 Peintinger, M. F., Oliveira, D. V. and Bredow, T. (2013), Consistent Gaussian b
 asis sets of triple-zeta valence with polarization quality for solid-state calc
 ulations. J. Comput. Chem., 34: 451-459. doi: 10.1002/jcc.23153                
                    

 *******************************************************************************
 LOCAL ATOMIC FUNCTIONS BASIS SET
 *******************************************************************************
   ATOM   X(AU)   Y(AU)   Z(AU)  N. TYPE  EXPONENT  S COEF   P COEF   D/F/G COEF
 *******************************************************************************
   1 C   -1.480  -2.563  -3.200
                                  1 S  
                                         1.358E+04 2.225E-04 0.000E+00 0.000E+00
                                         2.035E+03 1.723E-03 0.000E+00 0.000E+00
                                         4.632E+02 8.926E-03 0.000E+00 0.000E+00
                                         1.312E+02 3.573E-02 0.000E+00 0.000E+00
                                         4.285E+01 1.108E-01 0.000E+00 0.000E+00
                                         1.558E+01 2.430E-01 0.000E+00 0.000E+00
                                  2 S  
                                         6.207E+00 4.144E-01 0.000E+00 0.000E+00
                                         2.576E+00 2.374E-01 0.000E+00 0.000E+00
                                  3 S  
                                         4.941E-01 1.000E+00 0.000E+00 0.000E+00
                                  4 S  
                                         1.644E-01 1.000E+00 0.000E+00 0.000E+00
                           5-     7 P  
                                         3.470E+01 0.000E+00 5.333E-03 0.000E+00
                                         7.958E+00 0.000E+00 3.586E-02 0.000E+00
                                         2.378E+00 0.000E+00 1.422E-01 0.000E+00
                                         8.143E-01 0.000E+00 3.427E-01 0.000E+00
                           8-    10 P  
                                         5.662E-01 0.000E+00 1.000E+00 0.000E+00
                          11-    13 P  
                                         2.674E-01 0.000E+00 1.000E+00 0.000E+00
                          14-    18 D  
                                         8.792E-01 0.000E+00 0.000E+00 1.000E+00
   2 C   -2.960   0.000   3.200
   3 C   -1.480  -2.563  -0.498
   4 C   -2.960  -0.000   0.498

 *******************************************************************************
 FINISHED BASIS SET HANDLING 
 *******************************************************************************

 INFORMATION **** SET_MPP **** PCRYSTAL CALCULATION
 INFORMATION **** READM2 **** NEW DEFAULT: FOCK/KS MATRIX MIXING SET TO 30 %
 INFORMATION **** READM2 **** NEW DEFAULT: FULL DIRECT SCF MODE
 INFORMATION **** READM2 **** NEW DEFAULT: COULOMB BIPOLAR BUFFER SET TO 32 Mb
 INFORMATION **** READM2 **** NEW DEFAULT: EXCHANGE BIPOLAR BUFFER SET TO 32 Mb

 *******************************************************************************
 NEW DEFAULT: DFT INTEGRATION GRID INCREASED TO XLGRID
 NEW DEFAULT: DIIS ACCELERATOR ACTIVE
 USE KEYWORD NODIIS TO TURN IT OFF
 *******************************************************************************

 INFORMATION **** DFTD3_INPUT **** PERFORM LATEST DISPERSION CORRECTION DFT-D3(BJ) WITH AUTOMATIC PARAMETER SETUP
 PLEASE CITE:
 (1) DFT-D3 Reference
  S. Grimme, J. Antony, S. Ehrlich, and H. Krieg, J. Chem. Phys. 132 (2010), 154104
 (2) BJ-Damping Reference
  S. Grimme, S. Ehrlich, and L. Goerigk, J. Comput. Chem. 32 (2011), 1456-1465
 (3) General DFT-D Review
  S. Grimme, A. Hansen, J. G. Brandenburg, and C. Bannwarth,
  Chem. Rev. 116 (2016), 5105-5154

 INFORMATION **** MAXCYCLE **** MAX NUMBER OF SCF CYCLES SET TO        1600
 INFORMATION **** DIIS **** DIIS FOR SCF ACTIVE
 INFORMATION **** DIIS **** LEVEL SHIFTER DISABLED
 INFORMATION **** TOLINTEG **** COULOMB AND EXCHANGE SERIES TOLERANCES MODIFIED
 INFORMATION **** TOLDEE **** SCF TOL ON TOTAL ENERGY SET TO           7
 INFORMATION **** PPAN ****  MULLIKEN POPULATION ANALYSIS AT THE END OF SCF
 *******************************************************************************
 N. OF ATOMS PER CELL         4  COULOMB OVERLAP TOL         (T1) 10**   -7
 NUMBER OF SHELLS            32  COULOMB PENETRATION TOL     (T2) 10**   -7
 NUMBER OF AO                72  EXCHANGE OVERLAP TOL        (T3) 10**   -7
 N. OF ELECTRONS PER CELL    24  EXCHANGE PSEUDO OVP (F(G))  (T4) 10**   -7
 CORE ELECTRONS PER CELL      8  EXCHANGE PSEUDO OVP (P(G))  (T5) 10**  -14
 N. OF SYMMETRY OPERATORS    12  POLE ORDER IN MONO ZONE                  4
 *******************************************************************************
 TYPE OF CALCULATION :  RESTRICTED CLOSED SHELL
 KOHN-SHAM HAMILTONIAN

 (EXCHANGE)[CORRELATION] FUNCTIONAL:(BECKE 88)[LEE-YANG-PARR]

 NON-LOCAL WEIGHTING FACTOR (EXCHANGE) =           0.9000
 NON-LOCAL WEIGHTING FACTOR [CORRELATION] =        0.8100

 HYBRID EXCHANGE - PERCENTAGE OF FOCK EXCHANGE    20.0000

 CAPPA:IS1 15;IS2 15;IS3 15; K PTS MONK NET 344; SYMMOPS:K SPACE  12;G SPACE  12

 *******************************************************************************
 MAX NUMBER OF SCF CYCLES    1600  CONVERGENCE ON DELTAP        10**-17
 WEIGHT OF F(I) IN F(I+1)      60% CONVERGENCE ON ENERGY        10**- 7
 SHRINK. FACT.(MONKH.)   15 15 15  NUMBER OF K POINTS IN THE IBZ    344
 SHRINKING FACTOR(GILAT NET)   30  NUMBER OF K POINTS(GILAT NET)   2496
 *******************************************************************************
 *** K POINTS COORDINATES (OBLIQUE COORDINATES IN UNITS OF IS = 15)
   1-R(  0  0  0)   2-C(  1  0  0)   3-C(  2  0  0)   4-C(  3  0  0)
   5-C(  4  0  0)   6-C(  5  0  0)   7-C(  6  0  0)   8-C(  7  0  0)
   9-C(  1  1  0)  10-C(  2  1  0)  11-C(  3  1  0)  12-C(  4  1  0)
  13-C(  5  1  0)  14-C(  6  1  0)  15-C(  7  1  0)  16-C(  8  1  0)
  17-C(  9  1  0)  18-C( 10  1  0)  19-C( 11  1  0)  20-C( 12  1  0)
  21-C( 13  1  0)  22-C( 14  1  0)  23-C(  2  2  0)  24-C(  3  2  0)
  25-C(  4  2  0)  26-C(  5  2  0)  27-C(  6  2  0)  28-C(  7  2  0)
  29-C(  8  2  0)  30-C(  9  2  0)  31-C( 10  2  0)  32-C( 11  2  0)
  33-C( 12  2  0)  34-C( 13  2  0)  35-C(  3  3  0)  36-C(  4  3  0)
  37-C(  5  3  0)  38-C(  6  3  0)  39-C(  7  3  0)  40-C(  8  3  0)
  41-C(  9  3  0)  42-C( 10  3  0)  43-C( 11  3  0)  44-C( 12  3  0)
  45-C(  4  4  0)  46-C(  5  4  0)  47-C(  6  4  0)  48-C(  7  4  0)
  49-C(  8  4  0)  50-C(  9  4  0)  51-C( 10  4  0)  52-C( 11  4  0)
  53-C(  5  5  0)  54-C(  6  5  0)  55-C(  7  5  0)  56-C(  8  5  0)
  57-C(  9  5  0)  58-C( 10  5  0)  59-C(  6  6  0)  60-C(  7  6  0)
  61-C(  8  6  0)  62-C(  9  6  0)  63-C(  7  7  0)  64-C(  8  7  0)
  65-C(  1  1  1)  66-C(  2  1  1)  67-C(  3  1  1)  68-C(  4  1  1)
  69-C(  5  1  1)  70-C(  6  1  1)  71-C(  7  1  1)  72-C(  8  1  1)
  73-C(  9  1  1)  74-C( 10  1  1)  75-C( 11  1  1)  76-C( 12  1  1)
  77-C( 13  1  1)  78-C( 14  1  1)  79-C(  2  2  1)  80-C(  3  2  1)
  81-C(  4  2  1)  82-C(  5  2  1)  83-C(  6  2  1)  84-C(  7  2  1)
  85-C(  8  2  1)  86-C(  9  2  1)  87-C( 10  2  1)  88-C( 11  2  1)
  89-C( 12  2  1)  90-C( 13  2  1)  91-C( 14  2  1)  92-C(  3  3  1)
  93-C(  4  3  1)  94-C(  5  3  1)  95-C(  6  3  1)  96-C(  7  3  1)
  97-C(  8  3  1)  98-C(  9  3  1)  99-C( 10  3  1) 100-C( 11  3  1)
 101-C( 12  3  1) 102-C( 13  3  1) 103-C( 14  3  1) 104-C(  4  4  1)
 105-C(  5  4  1) 106-C(  6  4  1) 107-C(  7  4  1) 108-C(  8  4  1)
 109-C(  9  4  1) 110-C( 10  4  1) 111-C( 11  4  1) 112-C( 12  4  1)
 113-C( 13  4  1) 114-C( 14  4  1) 115-C(  5  5  1) 116-C(  6  5  1)
 117-C(  7  5  1) 118-C(  8  5  1) 119-C(  9  5  1) 120-C( 10  5  1)
 121-C( 11  5  1) 122-C( 12  5  1) 123-C( 13  5  1) 124-C( 14  5  1)
 125-C(  6  6  1) 126-C(  7  6  1) 127-C(  8  6  1) 128-C(  9  6  1)
 129-C( 10  6  1) 130-C( 11  6  1) 131-C( 12  6  1) 132-C( 13  6  1)
 133-C( 14  6  1) 134-C(  7  7  1) 135-C(  8  7  1) 136-C(  9  7  1)
 137-C( 10  7  1) 138-C( 11  7  1) 139-C( 12  7  1) 140-C( 13  7  1)
 141-C( 14  7  1) 142-C(  8  8  1) 143-C(  9  8  1) 144-C( 10  8  1)
 145-C( 11  8  1) 146-C( 12  8  1) 147-C( 13  8  1) 148-C(  9  9  1)
 149-C( 10  9  1) 150-C( 11  9  1) 151-C( 12  9  1) 152-C( 13  9  1)
 153-C( 10 10  1) 154-C( 11 10  1) 155-C( 12 10  1) 156-C( 13 10  1)
 157-C( 11 11  1) 158-C( 12 11  1) 159-C( 13 11  1) 160-C( 12 12  1)
 161-C( 13 12  1) 162-C( 13 13  1) 163-C(  2  2  2) 164-C(  3  2  2)
 165-C(  4  2  2) 166-C(  5  2  2) 167-C(  6  2  2) 168-C(  7  2  2)
 169-C(  8  2  2) 170-C(  9  2  2) 171-C( 10  2  2) 172-C( 11  2  2)
 173-C( 12  2  2) 174-C( 13  2  2) 175-C(  3  3  2) 176-C(  4  3  2)
 177-C(  5  3  2) 178-C(  6  3  2) 179-C(  7  3  2) 180-C(  8  3  2)
 181-C(  9  3  2) 182-C( 10  3  2) 183-C( 11  3  2) 184-C( 12  3  2)
 185-C( 13  3  2) 186-C(  4  4  2) 187-C(  5  4  2) 188-C(  6  4  2)
 189-C(  7  4  2) 190-C(  8  4  2) 191-C(  9  4  2) 192-C( 10  4  2)
 193-C( 11  4  2) 194-C( 12  4  2) 195-C( 13  4  2) 196-C(  5  5  2)
 197-C(  6  5  2) 198-C(  7  5  2) 199-C(  8  5  2) 200-C(  9  5  2)
 201-C( 10  5  2) 202-C( 11  5  2) 203-C( 12  5  2) 204-C( 13  5  2)
 205-C(  6  6  2) 206-C(  7  6  2) 207-C(  8  6  2) 208-C(  9  6  2)
 209-C( 10  6  2) 210-C( 11  6  2) 211-C( 12  6  2) 212-C( 13  6  2)
 213-C(  7  7  2) 214-C(  8  7  2) 215-C(  9  7  2) 216-C( 10  7  2)
 217-C( 11  7  2) 218-C( 12  7  2) 219-C( 13  7  2) 220-C(  8  8  2)
 221-C(  9  8  2) 222-C( 10  8  2) 223-C( 11  8  2) 224-C( 12  8  2)
 225-C(  9  9  2) 226-C( 10  9  2) 227-C( 11  9  2) 228-C( 12  9  2)
 229-C( 10 10  2) 230-C( 11 10  2) 231-C( 12 10  2) 232-C( 11 11  2)
 233-C( 12 11  2) 234-C( 12 12  2) 235-C(  3  3  3) 236-C(  4  3  3)
 237-C(  5  3  3) 238-C(  6  3  3) 239-C(  7  3  3) 240-C(  8  3  3)
 241-C(  9  3  3) 242-C( 10  3  3) 243-C( 11  3  3) 244-C( 12  3  3)
 245-C(  4  4  3) 246-C(  5  4  3) 247-C(  6  4  3) 248-C(  7  4  3)
 249-C(  8  4  3) 250-C(  9  4  3) 251-C( 10  4  3) 252-C( 11  4  3)
 253-C( 12  4  3) 254-C(  5  5  3) 255-C(  6  5  3) 256-C(  7  5  3)
 257-C(  8  5  3) 258-C(  9  5  3) 259-C( 10  5  3) 260-C( 11  5  3)
 261-C( 12  5  3) 262-C(  6  6  3) 263-C(  7  6  3) 264-C(  8  6  3)
 265-C(  9  6  3) 266-C( 10  6  3) 267-C( 11  6  3) 268-C( 12  6  3)
 269-C(  7  7  3) 270-C(  8  7  3) 271-C(  9  7  3) 272-C( 10  7  3)
 273-C( 11  7  3) 274-C( 12  7  3) 275-C(  8  8  3) 276-C(  9  8  3)
 277-C( 10  8  3) 278-C( 11  8  3) 279-C(  9  9  3) 280-C( 10  9  3)
 281-C( 11  9  3) 282-C( 10 10  3) 283-C( 11 10  3) 284-C( 11 11  3)
 285-C(  4  4  4) 286-C(  5  4  4) 287-C(  6  4  4) 288-C(  7  4  4)
 289-C(  8  4  4) 290-C(  9  4  4) 291-C( 10  4  4) 292-C( 11  4  4)
 293-C(  5  5  4) 294-C(  6  5  4) 295-C(  7  5  4) 296-C(  8  5  4)
 297-C(  9  5  4) 298-C( 10  5  4) 299-C( 11  5  4) 300-C(  6  6  4)
 301-C(  7  6  4) 302-C(  8  6  4) 303-C(  9  6  4) 304-C( 10  6  4)
 305-C( 11  6  4) 306-C(  7  7  4) 307-C(  8  7  4) 308-C(  9  7  4)
 309-C( 10  7  4) 310-C( 11  7  4) 311-C(  8  8  4) 312-C(  9  8  4)
 313-C( 10  8  4) 314-C(  9  9  4) 315-C( 10  9  4) 316-C( 10 10  4)
 317-C(  5  5  5) 318-C(  6  5  5) 319-C(  7  5  5) 320-C(  8  5  5)
 321-C(  9  5  5) 322-C( 10  5  5) 323-C(  6  6  5) 324-C(  7  6  5)
 325-C(  8  6  5) 326-C(  9  6  5) 327-C( 10  6  5) 328-C(  7  7  5)
 329-C(  8  7  5) 330-C(  9  7  5) 331-C( 10  7  5) 332-C(  8  8  5)
 333-C(  9  8  5) 334-C(  9  9  5) 335-C(  6  6  6) 336-C(  7  6  6)
 337-C(  8  6  6) 338-C(  9  6  6) 339-C(  7  7  6) 340-C(  8  7  6)
 341-C(  9  7  6) 342-C(  8  8  6) 343-C(  7  7  7) 344-C(  8  7  7)

 DIRECT LATTICE VECTORS COMPON. (A.U.)     RECIP. LATTICE VECTORS COMPON. (A.U.) 
        X            Y            Z              X            Y            Z
    2.9599749    0.0000000    8.6330879      1.4151438    0.0000000    0.2426009
   -1.4799875    2.5634135    8.6330879     -0.7075719    1.2255505    0.2426009
   -1.4799875   -2.5634135    8.6330879     -0.7075719   -1.2255505    0.2426009

 DISK SPACE FOR EIGENVECTORS (FTN 10)     3561408 REALS

 SYMMETRY ADAPTION OF THE BLOCH FUNCTIONS ENABLED
 TTTTTTTTTTTTTTTTTTTTTTTTTTTTTT gordsh1     TELAPSE        2.40 TCPU        1.64

 MATRIX SIZE: P(G)  161594, F(G)   30230, P(G) IRR   11167, F(G) IRR    4789
 MAX G-VECTOR INDEX FOR 1- AND 2-ELECTRON INTEGRALS 379

 TTTTTTTTTTTTTTTTTTTTTTTTTTTTTT INPUT       TELAPSE        2.41 TCPU        1.65

 NEIGHBORS OF THE NON-EQUIVALENT ATOMS

 N = NUMBER OF NEIGHBORS AT DISTANCE R
    ATOM  N     R/ANG      R/AU   NEIGHBORS (ATOM LABELS AND CELL INDICES)
   1 C    1     1.1821     2.2339    2 C    0-1 0
   1 C    1     1.4299     2.7021    3 C    0 0 0
   1 C    3     2.5062     4.7360    4 C    0 0 0    4 C    1-1 0    4 C    0-1 1
   1 C    1     2.6120     4.9360    4 C    0-1 0
   1 C    6     2.7130     5.1268    1 C   -1 0 1    1 C    1 0-1    1 C   -1 1 0
                                     1 C    1-1 0    1 C    0-1 1    1 C    0 1-1
   1 C    6     2.9594     5.5924    2 C   -1 0 0    2 C    0 0-1    2 C   -1-1 1
                                     2 C    1-1-1    2 C    1-2 0    2 C    0-2 1

   3 C    1     1.4299     2.7021    1 C    0 0 0
   3 C    3     1.6525     3.1228    4 C    0 0 0    4 C    1-1 0    4 C    0-1 1
   3 C    3     2.5062     4.7360    2 C    0 0 0    2 C    1-1 0    2 C    0-1 1
   3 C    1     2.6120     4.9360    2 C    0-1 0
   3 C    6     2.7130     5.1268    3 C   -1 0 1    3 C    1 0-1    3 C   -1 1 0
                                     3 C    1-1 0    3 C    0-1 1    3 C    0 1-1
   3 C    6     3.0667     5.7953    1 C   -1 0 1    1 C    1 0-1    1 C   -1 1 0
                                     1 C    1-1 0    1 C    0-1 1    1 C    0 1-1


 SYMMETRY ALLOWED ELASTIC DISTORTION 1
  0.5773503  0.0000000  0.0000000
  0.0000000  0.5773503  0.0000000
  0.0000000  0.0000000  0.5773503

 SYMMETRY ALLOWED ELASTIC DISTORTION 2
  0.4082483  0.0000000  0.0000000
  0.0000000  0.4082483  0.0000000
  0.0000000  0.0000000 -0.8164966

 SYMMETRY ALLOWED INTERNAL DEGREE(S) OF FREEDOM:   2
 TTTTTTTTTTTTTTTTTTTTTTTTTTTTTT SYMM        TELAPSE        2.88 TCPU        1.99
 TTTTTTTTTTTTTTTTTTTTTTTTTTTTTT INT_SCREEN  TELAPSE        2.88 TCPU        1.99

 *******************************************************************************
 *                             OPTIMIZATION STARTS                             *
 *******************************************************************************
 RECLASIFICATION OF INDICES FOR INTEGRAL CALC ACCORDING TO DIFFERENT CRITERIA:
           FIXDELTE                  FIXDELTX              FIXDELTN
          0.10000000E-01           0.80000000                 10
 *******************************************************************************

 *******************************************************************************
 COORDINATE AND CELL OPTIMIZATION - POINT    1
 INFORMATION **** EXCBUF **** EXCH. BIPO BUFFER: WORDS USED =      607536

 DFT PARAMETERS

     ATOM       ELECTRONS   NET CHARGE   R(ANGSTROM)
   1   6  C       6.0000      0.0000     0.77000000

 SIZE OF GRID=      11563
 TTTTTTTTTTTTTTTTTTTTTTTTTTTTTT MAKE_GRID2  TELAPSE        3.04 TCPU        2.15
 BECKE WEIGHT FUNCTION
 RADSAFE =     2.00
 TOLERANCES - DENSITY:10**- 6; POTENTIAL:10**- 9; GRID WGT:10**-14

 RADIAL INTEGRATION  - INTERVALS (POINTS,UPPER LIMIT):            1( 75,  4.0*R)

 ANGULAR INTEGRATION - INTERVALS (ACCURACY LEVEL [N. POINTS] UPPER LIMIT):
  1(  4[  86]   0.2)  2(  8[ 194]   0.5)  3( 12[ 350]   0.9)  4( 16[ 974]   3.5)
  5( 12[ 350]9999.0)
 TTTTTTTTTTTTTTTTTTTTTTTTTTTTTT INT_CALC    TELAPSE        3.07 TCPU        2.18

 *******************************************************************************
 2_dia2_opt                                                                      
 CRYSTAL - SCF - TYPE OF CALCULATION :  RESTRICTED CLOSED SHELL
 *******************************************************************************

 CAPPA:IS1 15;IS2 15;IS3 15; K PTS MONK NET 344; SYMMOPS:K SPACE  12;G SPACE  12

 TTTTTTTTTTTTTTTTTTTTTTTTTTTTTT SDIK        TELAPSE        3.22 TCPU        2.20

 AAAAAAAAAAAAAAAAAAAAAAAAAAAAAAAAAAAAAAAAAAAAAAAAAAAAAAAAAAAAAAAAAAAAAAAAAAAAAAA
         ATOMIC WAVEFUNCTION(S)


 NUCLEAR CHARGE  6.0  SYMMETRY SPECIES            S    P
 N. ELECTRONS    6.0  NUMBER OF PRIMITIVE GTOS   10    6
                      NUMBER OF CONTRACTED GTOS   4    3
                      NUMBER OF CLOSED SHELLS     2    0
                      OPEN SHELL OCCUPATION       0    2

  ZNUC SCFIT  TOTAL HF ENERGY   KINETIC ENERGY   VIRIAL THEOREM ACCURACY
   6.0  10   -3.766702350E+01  3.783137943E+01 -1.995655566E+00  1.6E-06

 AAAAAAAAAAAAAAAAAAAAAAAAAAAAAAAAAAAAAAAAAAAAAAAAAAAAAAAAAAAAAAAAAAAAAAAAAAAAAAA

 CHARGE NORMALIZATION FACTOR   1.00000000
 TOTAL ATOMIC CHARGES:
   6.0000000   6.0000000   6.0000000   6.0000000
 TTTTTTTTTTTTTTTTTTTTTTTTTTTTTT MOQGAD      TELAPSE        3.33 TCPU        2.31
 TTTTTTTTTTTTTTTTTTTTTTTTTTTTTT SHELLXN     TELAPSE        6.63 TCPU        5.60
 TTTTTTTTTTTTTTTTTTTTTTTTTTTTTT MONMO3      TELAPSE        6.70 TCPU        5.68
 NUMERICALLY INTEGRATED DENSITY     24.0001814862
 TTTTTTTTTTTTTTTTTTTTTTTTTTTTTT NUMDFT      TELAPSE        6.77 TCPU        5.74
 CYC   0 ETOT(AU) -1.532724518645E+02 DETOT -1.53E+02 tst  0.00E+00 PX  1.00E+00
 TTTTTTTTTTTTTTTTTTTTTTTTTTTTTT DIIS        TELAPSE        6.85 TCPU        5.82
 TTTTTTTTTTTTTTTTTTTTTTTTTTTTTT FDIK        TELAPSE        7.31 TCPU        6.15
 INSULATING STATE
 TOP OF VALENCE BANDS -    BAND     12; K  343; EIG -1.6769053E-01 AU
 TOP OF VALENCE BANDS -    BAND     12; K    1; EIG -2.6100920E-01 AU
 BOTTOM OF VIRTUAL BANDS - BAND     13; K  241; EIG -1.2997029E-01 AU
 INDIRECT ENERGY BAND GAP:   1.0264 eV
 BOTTOM OF VIRTUAL BANDS - BAND     13; K    1; EIG  4.1395040E-02 AU
 TTTTTTTTTTTTTTTTTTTTTTTTTTTTTT PDIG        TELAPSE        7.34 TCPU        6.18
 CHARGE NORMALIZATION FACTOR   1.00000000
 TOTAL ATOMIC CHARGES:
   6.1419998   6.1419998   5.8580002   5.8580002
 TTTTTTTTTTTTTTTTTTTTTTTTTTTTTT MOQGAD      TELAPSE        7.34 TCPU        6.18
 TTTTTTTTTTTTTTTTTTTTTTTTTTTTTT SHELLXN     TELAPSE       10.71 TCPU        9.54
 TTTTTTTTTTTTTTTTTTTTTTTTTTTTTT MONMO3      TELAPSE       10.78 TCPU        9.61
 NUMERICALLY INTEGRATED DENSITY     24.0001164370
 TTTTTTTTTTTTTTTTTTTTTTTTTTTTTT NUMDFT      TELAPSE       11.00 TCPU        9.84
 CYC   1 ETOT(AU) -1.521884337585E+02 DETOT  1.08E+00 tst  0.00E+00 PX  1.00E+00
 TTTTTTTTTTTTTTTTTTTTTTTTTTTTTT DIIS        TELAPSE       11.01 TCPU        9.84
 DIIS TEST: 0.94411E+00 AT SCF   CYCLE   1 - MIX   60 %
 TTTTTTTTTTTTTTTTTTTTTTTTTTTTTT FDIK        TELAPSE       11.04 TCPU        9.87
 INSULATING STATE
 TOP OF VALENCE BANDS -    BAND     12; K  343; EIG -1.1419792E-01 AU
 TOP OF VALENCE BANDS -    BAND     12; K    1; EIG -1.8647511E-01 AU
 BOTTOM OF VIRTUAL BANDS - BAND     13; K  290; EIG -8.1333304E-02 AU
 INDIRECT ENERGY BAND GAP:   0.8943 eV
 BOTTOM OF VIRTUAL BANDS - BAND     13; K    1; EIG  3.9946984E-02 AU
 TTTTTTTTTTTTTTTTTTTTTTTTTTTTTT PDIG        TELAPSE       11.07 TCPU        9.90
 CHARGE NORMALIZATION FACTOR   1.00000000
 TOTAL ATOMIC CHARGES:
   5.9663759   5.9663759   6.0336241   6.0336241
 TTTTTTTTTTTTTTTTTTTTTTTTTTTTTT MOQGAD      TELAPSE       11.07 TCPU        9.90
 TTTTTTTTTTTTTTTTTTTTTTTTTTTTTT SHELLXN     TELAPSE       14.44 TCPU       13.27
 TTTTTTTTTTTTTTTTTTTTTTTTTTTTTT MONMO3      TELAPSE       14.51 TCPU       13.34
 NUMERICALLY INTEGRATED DENSITY     24.0001220940
 TTTTTTTTTTTTTTTTTTTTTTTTTTTTTT NUMDFT      TELAPSE       14.69 TCPU       13.52
 CYC   2 ETOT(AU) -1.522393100480E+02 DETOT -5.09E-02 tst  2.84E-03 PX  7.17E-02
 TTTTTTTTTTTTTTTTTTTTTTTTTTTTTT DIIS        TELAPSE       14.80 TCPU       13.63
 DIIS TEST: 0.20988E-01 AT SCF   CYCLE   2 - DIIS ACTIVE - HISTORY:     2 CYCLES
 TTTTTTTTTTTTTTTTTTTTTTTTTTTTTT FDIK        TELAPSE       14.84 TCPU       13.66
 INSULATING STATE
 TOP OF VALENCE BANDS -    BAND     12; K  343; EIG -7.9002481E-02 AU
 TOP OF VALENCE BANDS -    BAND     12; K    1; EIG -1.5734670E-01 AU
 BOTTOM OF VIRTUAL BANDS - BAND     13; K  241; EIG -3.2895804E-02 AU
 INDIRECT ENERGY BAND GAP:   1.2546 eV
 BOTTOM OF VIRTUAL BANDS - BAND     13; K    1; EIG  1.0905837E-01 AU
 TTTTTTTTTTTTTTTTTTTTTTTTTTTTTT PDIG        TELAPSE       14.86 TCPU       13.69
 CHARGE NORMALIZATION FACTOR   1.00000000
 TOTAL ATOMIC CHARGES:
   5.9894001   5.9894001   6.0105999   6.0105999
 TTTTTTTTTTTTTTTTTTTTTTTTTTTTTT MOQGAD      TELAPSE       14.87 TCPU       13.69
 TTTTTTTTTTTTTTTTTTTTTTTTTTTTTT SHELLXN     TELAPSE       18.24 TCPU       17.06
 TTTTTTTTTTTTTTTTTTTTTTTTTTTTTT MONMO3      TELAPSE       18.31 TCPU       17.13
 NUMERICALLY INTEGRATED DENSITY     24.0001293250
 TTTTTTTTTTTTTTTTTTTTTTTTTTTTTT NUMDFT      TELAPSE       18.49 TCPU       17.31
 CYC   3 ETOT(AU) -1.522419392262E+02 DETOT -2.63E-03 tst  1.87E-04 PX  4.80E-02
 TTTTTTTTTTTTTTTTTTTTTTTTTTTTTT DIIS        TELAPSE       18.49 TCPU       17.32
 DIIS TEST: 0.38570E-02 AT SCF   CYCLE   3 - DIIS ACTIVE - HISTORY:     3 CYCLES
 TTTTTTTTTTTTTTTTTTTTTTTTTTTTTT FDIK        TELAPSE       18.57 TCPU       17.39
 INSULATING STATE
 TOP OF VALENCE BANDS -    BAND     12; K  343; EIG -8.8289262E-02 AU
 TOP OF VALENCE BANDS -    BAND     12; K    1; EIG -1.6453675E-01 AU
 BOTTOM OF VIRTUAL BANDS - BAND     13; K  241; EIG -3.9488840E-02 AU
 INDIRECT ENERGY BAND GAP:   1.3279 eV
 BOTTOM OF VIRTUAL BANDS - BAND     13; K    1; EIG  9.5735430E-02 AU
 TTTTTTTTTTTTTTTTTTTTTTTTTTTTTT PDIG        TELAPSE       18.64 TCPU       17.46
 CHARGE NORMALIZATION FACTOR   1.00000000
 TOTAL ATOMIC CHARGES:
   5.9734000   5.9734000   6.0266000   6.0266000
 TTTTTTTTTTTTTTTTTTTTTTTTTTTTTT MOQGAD      TELAPSE       18.64 TCPU       17.46
 TTTTTTTTTTTTTTTTTTTTTTTTTTTTTT SHELLXN     TELAPSE       22.00 TCPU       20.82
 TTTTTTTTTTTTTTTTTTTTTTTTTTTTTT MONMO3      TELAPSE       22.08 TCPU       20.89
 NUMERICALLY INTEGRATED DENSITY     24.0001273550
 TTTTTTTTTTTTTTTTTTTTTTTTTTTTTT NUMDFT      TELAPSE       22.25 TCPU       21.07
 CYC   4 ETOT(AU) -1.522423204547E+02 DETOT -3.81E-04 tst  2.21E-05 PX  1.11E-02
 TTTTTTTTTTTTTTTTTTTTTTTTTTTTTT DIIS        TELAPSE       22.26 TCPU       21.08
 DIIS TEST: 0.75428E-05 AT SCF   CYCLE   4 - DIIS ACTIVE - HISTORY:     4 CYCLES
 TTTTTTTTTTTTTTTTTTTTTTTTTTTTTT FDIK        TELAPSE       22.29 TCPU       21.11
 INSULATING STATE
 TOP OF VALENCE BANDS -    BAND     12; K  343; EIG -8.8434894E-02 AU
 TOP OF VALENCE BANDS -    BAND     12; K    1; EIG -1.6451306E-01 AU
 BOTTOM OF VIRTUAL BANDS - BAND     13; K  241; EIG -3.9461208E-02 AU
 INDIRECT ENERGY BAND GAP:   1.3326 eV
 BOTTOM OF VIRTUAL BANDS - BAND     13; K    1; EIG  9.6108925E-02 AU
 TTTTTTTTTTTTTTTTTTTTTTTTTTTTTT PDIG        TELAPSE       22.32 TCPU       21.13
 CHARGE NORMALIZATION FACTOR   1.00000000
 TOTAL ATOMIC CHARGES:
   5.9735531   5.9735531   6.0264469   6.0264469
 TTTTTTTTTTTTTTTTTTTTTTTTTTTTTT MOQGAD      TELAPSE       22.32 TCPU       21.14
 TTTTTTTTTTTTTTTTTTTTTTTTTTTTTT SHELLXN     TELAPSE       25.69 TCPU       24.50
 TTTTTTTTTTTTTTTTTTTTTTTTTTTTTT MONMO3      TELAPSE       25.76 TCPU       24.57
 NUMERICALLY INTEGRATED DENSITY     24.0001274599
 TTTTTTTTTTTTTTTTTTTTTTTTTTTTTT NUMDFT      TELAPSE       25.94 TCPU       24.75
 CYC   5 ETOT(AU) -1.522423218064E+02 DETOT -1.35E-06 tst  1.24E-07 PX  7.91E-04
 TTTTTTTTTTTTTTTTTTTTTTTTTTTTTT DIIS        TELAPSE       26.00 TCPU       24.81
 DIIS TEST: 0.17319E-06 AT SCF   CYCLE   5 - DIIS ACTIVE - HISTORY:     5 CYCLES
 TTTTTTTTTTTTTTTTTTTTTTTTTTTTTT FDIK        TELAPSE       26.03 TCPU       24.84
 INSULATING STATE
 TOP OF VALENCE BANDS -    BAND     12; K  343; EIG -8.8529501E-02 AU
 TOP OF VALENCE BANDS -    BAND     12; K    1; EIG -1.6458996E-01 AU
 BOTTOM OF VIRTUAL BANDS - BAND     13; K  241; EIG -3.9523807E-02 AU
 INDIRECT ENERGY BAND GAP:   1.3335 eV
 BOTTOM OF VIRTUAL BANDS - BAND     13; K    1; EIG  9.6032803E-02 AU
 TTTTTTTTTTTTTTTTTTTTTTTTTTTTTT PDIG        TELAPSE       26.14 TCPU       24.95
 CHARGE NORMALIZATION FACTOR   1.00000000
 TOTAL ATOMIC CHARGES:
   5.9735741   5.9735741   6.0264259   6.0264259
 TTTTTTTTTTTTTTTTTTTTTTTTTTTTTT MOQGAD      TELAPSE       26.14 TCPU       24.95
 TTTTTTTTTTTTTTTTTTTTTTTTTTTTTT SHELLXN     TELAPSE       29.52 TCPU       28.32
 TTTTTTTTTTTTTTTTTTTTTTTTTTTTTT MONMO3      TELAPSE       29.59 TCPU       28.39
 NUMERICALLY INTEGRATED DENSITY     24.0001274529
 TTTTTTTTTTTTTTTTTTTTTTTTTTTTTT NUMDFT      TELAPSE       29.77 TCPU       28.57
 CYC   6 ETOT(AU) -1.522423219157E+02 DETOT -1.09E-07 tst  2.17E-09 PX  2.51E-04
 TTTTTTTTTTTTTTTTTTTTTTTTTTTTTT DIIS        TELAPSE       29.77 TCPU       28.58
 DIIS TEST: 0.45511E-08 AT SCF   CYCLE   6 - DIIS ACTIVE - HISTORY:     6 CYCLES
 TTTTTTTTTTTTTTTTTTTTTTTTTTTTTT FDIK        TELAPSE       29.81 TCPU       28.61
 INSULATING STATE
 TOP OF VALENCE BANDS -    BAND     12; K  343; EIG -8.8518879E-02 AU
 TOP OF VALENCE BANDS -    BAND     12; K    1; EIG -1.6457766E-01 AU
 BOTTOM OF VIRTUAL BANDS - BAND     13; K  241; EIG -3.9513229E-02 AU
 INDIRECT ENERGY BAND GAP:   1.3335 eV
 BOTTOM OF VIRTUAL BANDS - BAND     13; K    1; EIG  9.6041522E-02 AU
 TTTTTTTTTTTTTTTTTTTTTTTTTTTTTT PDIG        TELAPSE       29.83 TCPU       28.63
 CHARGE NORMALIZATION FACTOR   1.00000000
 TOTAL ATOMIC CHARGES:
   5.9735639   5.9735639   6.0264361   6.0264361
 TTTTTTTTTTTTTTTTTTTTTTTTTTTTTT MOQGAD      TELAPSE       29.84 TCPU       28.63
 TTTTTTTTTTTTTTTTTTTTTTTTTTTTTT SHELLXN     TELAPSE       33.21 TCPU       32.00
 TTTTTTTTTTTTTTTTTTTTTTTTTTTTTT MONMO3      TELAPSE       33.28 TCPU       32.07
 NUMERICALLY INTEGRATED DENSITY     24.0001274549
 TTTTTTTTTTTTTTTTTTTTTTTTTTTTTT NUMDFT      TELAPSE       33.45 TCPU       32.25
 CYC   7 ETOT(AU) -1.522423219215E+02 DETOT -5.76E-09 tst  7.80E-10 PX  1.45E-04
 TTTTTTTTTTTTTTTTTTTTTTTTTTTTTT DIIS        TELAPSE       33.46 TCPU       32.25
 DIIS TEST: 0.35570E-09 AT SCF   CYCLE   7 - DIIS ACTIVE - HISTORY:     7 CYCLES
 TTTTTTTTTTTTTTTTTTTTTTTTTTTTTT FDIK        TELAPSE       33.53 TCPU       32.33
 INSULATING STATE
 TOP OF VALENCE BANDS -    BAND     12; K  343; EIG -8.8519148E-02 AU
 TOP OF VALENCE BANDS -    BAND     12; K    1; EIG -1.6457786E-01 AU
 BOTTOM OF VIRTUAL BANDS - BAND     13; K  241; EIG -3.9513164E-02 AU
 INDIRECT ENERGY BAND GAP:   1.3335 eV
 BOTTOM OF VIRTUAL BANDS - BAND     13; K    1; EIG  9.6041433E-02 AU
 TTTTTTTTTTTTTTTTTTTTTTTTTTTTTT PDIG        TELAPSE       33.60 TCPU       32.39
 CHARGE NORMALIZATION FACTOR   1.00000000
 TOTAL ATOMIC CHARGES:
   5.9735627   5.9735627   6.0264373   6.0264373
 TTTTTTTTTTTTTTTTTTTTTTTTTTTTTT MOQGAD      TELAPSE       33.60 TCPU       32.39
 TTTTTTTTTTTTTTTTTTTTTTTTTTTTTT SHELLXN     TELAPSE       36.96 TCPU       35.76
 +++ ENERGIES IN A.U. +++
 ::: EXT EL-POLE                                  -5.4494754236470E+02
 ::: EXT EL-SPHEROPOLE                             5.7019054423424E+00
 ::: BIELET ZONE E-E                               5.6979534479067E+02
 ::: TOTAL E-E                                     3.0549707868315E+01
 ::: TOTAL E-N + N-E                              -2.6806234384357E+02
 ::: TOTAL N-N                                    -4.9020640008911E+01
 ::: KINETIC ENERGY                                1.5182125823983E+02
 ::: PSEUDO TOTAL   ENERGY                        -1.3471201774434E+02
 ::: VIRIAL COEFFICIENT                            1.0597111816654E+00
 TTTTTTTTTTTTTTTTTTTTTTTTTTTTTT MONMO3      TELAPSE       37.03 TCPU       35.83
 NUMERICALLY INTEGRATED DENSITY     24.0001274548
 TTTTTTTTTTTTTTTTTTTTTTTTTTTTTT NUMDFT      TELAPSE       37.21 TCPU       36.00
 CYC   8 ETOT(AU) -1.522423219250E+02 DETOT -3.49E-09 tst  1.52E-10 PX  1.45E-04

 == SCF ENDED - CONVERGENCE ON ENERGY      E(AU) -1.5224232192496E+02 CYCLES   8


 ENERGY EXPRESSION=HARTREE+FOCK EXCH*0.20000+(BECKE      EXCH)*0.80000+LYP        CORR


 TOTAL ENERGY(DFT)(AU)(  8) -1.5224232192496E+02 DE-3.5E-09 tester 1.5E-10
 TTTTTTTTTTTTTTTTTTTTTTTTTTTTTT EDFT        TELAPSE       37.21 TCPU       36.00

 *******************************************************************************
 *                             FORCE CALCULATION                               *
 *******************************************************************************

 TTTTTTTTTTTTTTTTTTTTTTTTTTTTTT NUMDFG      TELAPSE       38.25 TCPU       37.04
 INFORMATION **** EXCPOG **** EXCH. BIPO BUFFER LENGTH (WORDS) =     2430144
 INFORMATION **** GENPOG **** BIPO BUFFER LENGTH (WORDS) =      669400
 TTTTTTTTTTTTTTTTTTTTTTTTTTTTTT SHELXG      TELAPSE       58.59 TCPU       57.38


 D3 DISPERSION ENERGY (AU)       -4.5066111553061E-02
 TOTAL ENERGY + DISP (AU)        -1.5228738803651E+02

 CARTESIAN FORCES IN HARTREE/BOHR (ANALYTICAL)
   ATOM                     X                   Y                   Z
   1   6            -2.228309038257E-15 -7.995113509642E-16 -1.258397540569E-04
   2   6             2.228918402332E-15  9.710911330679E-16  1.258397540573E-04
   3   6            -1.544642308778E-15  5.048435535886E-16  1.625505105042E-04
   4   6             1.544032944703E-15 -6.856751942308E-16 -1.625505105045E-04

 RESULTANT FORCE     0.000000000000E+00 -9.251858538543E-18  1.110223024625E-16

 ATOMIC PART

 SYMMETRY ALLOWED FORCES (ANALYTICAL) (DIRECTION, FORCE)

    1 -1.7796429E-04    2  2.2988114E-04

 CELL PART

 GRADIENT WITH RESPECT TO THE CELL PARAMETER IN HARTREE/BOHR
ORDER: -D/DA1X, -D/DA1Y, -D/DA1Z
       -D/DA2X, -D/DA2Y, -D/DA2Z
       -D/DA3X, -D/DA3Y, -D/DA3Z
  0.192620089150E-04  0.120268862859E-15 -0.195870779777E-04
 -0.963100445572E-05  0.166813890425E-04 -0.195870779774E-04
 -0.963100445572E-05 -0.166813890434E-04 -0.195870779773E-04

STRESS TENSOR, IN HARTREE/BOHR^3:
ORDER: 11 12 13
       21 22 23
       31 32 33
 -0.435197864579E-06  0.000000000000E+00 -0.156074594479E-15
 -0.850059278293E-17 -0.435197864467E-06  0.337351333399E-16
  0.486002096502E-17  0.190080206947E-17  0.258144543381E-05

PRESSURE FROM THE STRESS TENSOR,
IN HARTREE/BOHR^3: -0.57035E-06
PRESSURE IN GIGAPASCAL: -0.1678E-01
CONVERSION FACTOR: 1 HARTREE/BOHR^3= 29421 GIGAPASCAL
WHEN USING VALUES FOR BOHR RADIUS AND HARTREE
FROM IUPAC WEBSITE, APRIL 2009
ENTHALPY: -1.5228750011841E+02

 SYMMETRY ALLOWED FORCES (ANALYTICAL) (DIRECTION, FORCE)

    1 -4.4926431E-05    2  1.0872037E-04
 TTTTTTTTTTTTTTTTTTTTTTTTTTTTTT TOTGRA_C    TELAPSE       58.70 TCPU       57.50
 INFORMATION **** optc0001 **** GEOMETRY OUTPUT FILE
 CLASSICAL MODEL (SCHLEGEL) USED AS INITIAL HESSIAN MATRIX
 REFERENCE GEOMETRY DEFINED

 MAX GRADIENT      0.000230  THRESHOLD              0.000450 CONVERGED YES
 RMS GRADIENT      0.000157  THRESHOLD              0.000300 CONVERGED YES

 WARNINGWARNINGWARNINGWARNINGWARNINGWARNINGWARNINGWARNINGWARNINGWARNINGWARNING

 CONVERGENCE ON GRADIENTS SATISFIED AFTER THE FIRST OPTIMIZATION CYCLE
 GEOMETRY OPTIMIZATION STOPPED

 WARNINGWARNINGWARNINGWARNINGWARNINGWARNINGWARNINGWARNINGWARNINGWARNINGWARNING


 ******************************************************************
 * OPT END - CONVERGED * E(AU):  -1.522873880365E+02  POINTS    1 *
 ******************************************************************

 ENERGY CONTRIBUTIONS OF SEMICLASSICAL CORRECTIONS
  D3 DISPERSION ENERGY (AU)      -4.506611155306E-02
 
   BAND GAP:                      1.3335  eV 


 NEIGHBORS OF THE NON-EQUIVALENT ATOMS

 N = NUMBER OF NEIGHBORS AT DISTANCE R
    ATOM  N     R/ANG      R/AU   NEIGHBORS (ATOM LABELS AND CELL INDICES)
   1 C    1     1.1821     2.2339    2 C    0-1 0
   1 C    1     1.4299     2.7021    3 C    0 0 0
   1 C    3     2.5062     4.7360    4 C    0 0 0    4 C    1-1 0    4 C    0-1 1
   1 C    1     2.6120     4.9360    4 C    0-1 0
   1 C    6     2.7130     5.1268    1 C   -1 0 1    1 C    1 0-1    1 C   -1 1 0
                                     1 C    1-1 0    1 C    0-1 1    1 C    0 1-1
   1 C    6     2.9594     5.5924    2 C   -1 0 0    2 C    0 0-1    2 C   -1-1 1
                                     2 C    1-1-1    2 C    1-2 0    2 C    0-2 1

   3 C    1     1.4299     2.7021    1 C    0 0 0
   3 C    3     1.6525     3.1228    4 C    0 0 0    4 C    1-1 0    4 C    0-1 1
   3 C    3     2.5062     4.7360    2 C    0 0 0    2 C    1-1 0    2 C    0-1 1
   3 C    1     2.6120     4.9360    2 C    0-1 0
   3 C    6     2.7130     5.1268    3 C   -1 0 1    3 C    1 0-1    3 C   -1 1 0
                                     3 C    1-1 0    3 C    0-1 1    3 C    0 1-1
   3 C    6     3.0667     5.7953    1 C   -1 0 1    1 C    1 0-1    1 C   -1 1 0
                                     1 C    1-1 0    1 C    0-1 1    1 C    0 1-1

 TTTTTTTTTTTTTTTTTTTTTTTTTTTTTT AFTER FIRST TELAPSE       58.97 TCPU       57.51
 MMMMMMMMMMMMMMMMMMMMMMMMMMMMMMMMMMMMMMMMMMMMMMMMMMMMMMMMMMMMMMMMMMMMMMMMMMMMMMM
     ALPHA+BETA ELECTRONS
 MULLIKEN POPULATION ANALYSIS - NO. OF ELECTRONS   24.000000

  ATOM    Z CHARGE  A.O. POPULATION

   1 C    6  5.974  0.855  1.119  0.763  0.400  0.429  0.429  0.559 -0.038
                   -0.038 -0.027  0.579  0.579  0.333  0.012  0.009  0.009
                    0.001  0.001
   2 C    6  5.974  0.855  1.119  0.763  0.400  0.429  0.429  0.559 -0.038
                   -0.038 -0.027  0.579  0.579  0.333  0.012  0.009  0.009
                    0.001  0.001
   3 C    6  6.026  0.853  1.121  0.749  0.490  0.407  0.407  0.451 -0.003
                   -0.003  0.000  0.512  0.512  0.489  0.013  0.007  0.007
                    0.007  0.007
   4 C    6  6.026  0.853  1.121  0.749  0.490  0.407  0.407  0.451 -0.003
                   -0.003  0.000  0.512  0.512  0.489  0.013  0.007  0.007
                    0.007  0.007

  ATOM    Z CHARGE  SHELL POPULATION

   1 C    6  5.974  0.855  1.119  0.763  0.400  1.417 -0.102  1.490  0.033
   2 C    6  5.974  0.855  1.119  0.763  0.400  1.417 -0.102  1.490  0.033
   3 C    6  6.026  0.853  1.121  0.749  0.490  1.265 -0.006  1.513  0.041
   4 C    6  6.026  0.853  1.121  0.749  0.490  1.265 -0.006  1.513  0.041

 OVERLAP POPULATION CONDENSED TO ATOMS FOR FIRST   6 NEIGHBORS

 ATOM A   1 C    ATOM B     CELL      R(AB)/AU R(AB)/ANG    OVPOP(AB)
                  2 C    (  0 -1  0)     2.234     1.182     0.878
                  3 C    (  0  0  0)     2.702     1.430     0.383
                  4 C    (  0  0  0)     4.736     2.506    -0.028
                  4 C    (  0 -1  0)     4.936     2.612    -0.025
                  1 C    ( -1  0  1)     5.127     2.713     0.004
                  2 C    ( -1  0  0)     5.592     2.959    -0.001

 ATOM A   3 C    ATOM B     CELL      R(AB)/AU R(AB)/ANG    OVPOP(AB)
                  1 C    (  0  0  0)     2.702     1.430     0.383
                  4 C    (  0  0  0)     3.123     1.652     0.289
                  2 C    (  0  0  0)     4.736     2.506    -0.028
                  2 C    (  0 -1  0)     4.936     2.612    -0.025
                  3 C    ( -1  0  1)     5.127     2.713    -0.015
                  1 C    ( -1  0  1)     5.795     3.067    -0.002
 EIGENVECTORS IN FORTRAN UNIT  8

 FINAL OPTIMIZED GEOMETRY - DIMENSIONALITY OF THE SYSTEM      3
 (NON PERIODIC DIRECTION: LATTICE PARAMETER FORMALLY SET TO 500)
 *******************************************************************************
 LATTICE PARAMETERS (ANGSTROMS AND DEGREES) - BOHR = 0.5291772083 ANGSTROM
 PRIMITIVE CELL - CENTRING CODE 7/0 VOLUME=    29.120412 - DENSITY  2.737 g/cm^3
         A              B              C           ALPHA      BETA       GAMMA 
     4.82949681     4.82949681     4.82949681    32.625242  32.625242  32.625242
 *******************************************************************************
 ATOMS IN THE ASYMMETRIC UNIT    2 - ATOMS IN THE UNIT CELL:    4
     ATOM                 X/A                 Y/B                 Z/C    
 *******************************************************************************
      1 T   6 C    -4.568733333333E-01 -4.568733333333E-01 -4.568733333333E-01
      2 F   6 C     4.568733333333E-01  4.568733333333E-01  4.568733333333E-01
      3 T   6 C    -3.525433333333E-01 -3.525433333333E-01 -3.525433333333E-01
      4 F   6 C     3.525433333333E-01  3.525433333333E-01  3.525433333333E-01

 TRANSFORMATION MATRIX PRIMITIVE-CRYSTALLOGRAPHIC CELL
  1.0000  0.0000  1.0000 -1.0000  1.0000  1.0000  0.0000 -1.0000  1.0000

 *******************************************************************************
 CRYSTALLOGRAPHIC CELL (VOLUME=         87.36123515)
         A              B              C           ALPHA      BETA       GAMMA 
     2.71300000     2.71300000    13.70530000    90.000000  90.000000 120.000000

 COORDINATES IN THE CRYSTALLOGRAPHIC CELL
     ATOM                 X/A                 Y/B                 Z/C    
 *******************************************************************************
      1 T   6 C    -3.333333333333E-01  3.333333333333E-01 -1.235400000000E-01
      2 F   6 C     3.333333333333E-01 -3.333333333333E-01  1.235400000000E-01
      3 T   6 C    -3.333333333333E-01  3.333333333333E-01 -1.921000000000E-02
      4 F   6 C     3.333333333333E-01 -3.333333333333E-01  1.921000000000E-02

 T = ATOM BELONGING TO THE ASYMMETRIC UNIT
 INFORMATION **** fort.34 **** GEOMETRY OUTPUT FILE

 DIRECT LATTICE VECTORS CARTESIAN COMPONENTS (ANGSTROM)
          X                    Y                    Z
   0.156635128031E+01   0.000000000000E+00   0.456843333333E+01
  -0.783175640156E+00   0.135650000000E+01   0.456843333333E+01
  -0.783175640156E+00  -0.135650000000E+01   0.456843333333E+01


 CARTESIAN COORDINATES - PRIMITIVE CELL
 *******************************************************************************
 *      ATOM          X(ANGSTROM)         Y(ANGSTROM)         Z(ANGSTROM)
 *******************************************************************************
    1     6 C    -7.831756401557E-01 -1.356500000000E+00 -1.693152762000E+00
    2     6 C    -1.566351280311E+00  1.175009441523E-16  1.693152762000E+00
    3     6 C    -7.831756401557E-01 -1.356500000000E+00 -2.632788130000E-01
    4     6 C    -1.566351280311E+00 -1.175009441523E-16  2.632788130000E-01

 ****   12 SYMMOPS - TRANSLATORS IN FRACTIONAL UNITS
 **** MATRICES AND TRANSLATORS IN THE CRYSTALLOGRAPHIC REFERENCE FRAME
   V INV                    ROTATION MATRICES                   TRANSLATORS
   1   1  1.00  0.00  0.00  0.00  1.00  0.00  0.00  0.00  1.00  0.00  0.00  0.00
   2   3 -0.00 -0.00  1.00  1.00 -0.00 -0.00 -0.00  1.00  0.00  0.00  0.00  0.00
   3   2 -0.00  1.00 -0.00 -0.00  0.00  1.00  1.00 -0.00 -0.00  0.00  0.00  0.00
   4   4  0.00 -1.00  0.00 -1.00  0.00  0.00  0.00  0.00 -1.00  0.00  0.00  0.00
   5   5 -1.00  0.00  0.00  0.00 -0.00 -1.00  0.00 -1.00 -0.00  0.00  0.00  0.00
   6   6  0.00  0.00 -1.00  0.00 -1.00  0.00 -1.00  0.00  0.00  0.00  0.00  0.00
   7   7 -1.00  0.00  0.00  0.00 -1.00 -0.00  0.00 -0.00 -1.00  0.00  0.00  0.00
   8   9  0.00  0.00 -1.00 -1.00  0.00  0.00  0.00 -1.00  0.00  0.00  0.00  0.00
   9   8  0.00 -1.00  0.00  0.00  0.00 -1.00 -1.00  0.00  0.00  0.00  0.00  0.00
  10  10 -0.00  1.00 -0.00  1.00 -0.00 -0.00 -0.00  0.00  1.00  0.00  0.00  0.00
  11  11  1.00 -0.00 -0.00 -0.00  0.00  1.00 -0.00  1.00  0.00  0.00  0.00  0.00
  12  12 -0.00 -0.00  1.00 -0.00  1.00  0.00  1.00 -0.00 -0.00  0.00  0.00  0.00
 TTTTTTTTTTTTTTTTTTTTTTTTTTTTTT END         TELAPSE       59.36 TCPU       57.56
 EEEEEEEEEE TERMINATION  DATE 21 12 2023 TIME 11:42:04.3
NODE    0 CPU TIME =        57.557
NODE    1 CPU TIME =        57.904
NODE    2 CPU TIME =        57.722
NODE    3 CPU TIME =        58.018
NODE    4 CPU TIME =        57.891
NODE    5 CPU TIME =        57.995
NODE    6 CPU TIME =        57.827
NODE    7 CPU TIME =        57.851
NODE    8 CPU TIME =        57.910
NODE    9 CPU TIME =        57.822
NODE   10 CPU TIME =        57.971
NODE   11 CPU TIME =        57.893
NODE   12 CPU TIME =        58.003
NODE   13 CPU TIME =        57.900
NODE   14 CPU TIME =        57.949
NODE   15 CPU TIME =        57.963
NODE   16 CPU TIME =        58.003
NODE   17 CPU TIME =        57.981
NODE   18 CPU TIME =        57.838
NODE   19 CPU TIME =        58.040
NODE   20 CPU TIME =        58.225
NODE   21 CPU TIME =        57.788
NODE   22 CPU TIME =        58.156
NODE   23 CPU TIME =        57.913
NODE   24 CPU TIME =        57.940
NODE   25 CPU TIME =        57.971
NODE   26 CPU TIME =        58.195
NODE   27 CPU TIME =        58.109
NODE   28 CPU TIME =        57.825
NODE   29 CPU TIME =        57.793
NODE   30 CPU TIME =        57.877
NODE   31 CPU TIME =        57.927
    TOTAL CPU TIME =      1853.755
