
         
 *******************************************************************************
 *                                                                             *
 *                               CRYSTAL23                                     *
 *                      public : 1.0.1 - October 2022                          *
 *                       HTTP://WWW.CRYSTAL.UNITO.IT                           *
 *                                                                             *
 *                              MAIN AUTHORS                                   *
 *                                                                             *
 *  R. DOVESI(1,11), V.R. SAUNDERS(2), C. ROETTI(1,11), R. ORLANDO(1,11),      *
 *  C.M. ZICOVICH-WILSON(1,3), F. PASCALE(4), B. CIVALLERI(1,11),              *
 *  K. DOLL(5), N.M. HARRISON(6), I.J. BUSH(7), Ph. D'ARCO(8),                 *
 *  M. LLUNELL(9), M. CAUSA'(10), Y. NOEL(8), L. MASCHIO(1,11), A. ERBA(1,11)  *
 *  M. RE'RAT(14), S. CASASSA(1,11), B.G. SEARLE(2), J.K. DESMARAIS(1)         *
 *                                                                             *
 *        CONTRIBUTIONS TO THE CODE HAVE ALSO BEEN GIVEN BY                    *
 *                                                                             *
 *  M. FERRABONE(1,11), M. DE LA PIERRE(1,11), M. FERRERO(1,11),               *
 *  J. BAIMA(1,11), E. ALBANESE(1,11), M.F. PEINTINGER(12), R. BAST(13),       *
 *  B. KIRTMAN(15), V. LACIVITA(1,11), R. DEMICHELIS(1,16)                     *
 *  G. BRANDEBURG(17), S. SALUSTRO(1,11), G. SANSONE(1,11)                     *
 *  M.T. RUGGIERO(18), L.E. DAGA(1), L. DONA'(1), A. COSSARD(1)                *
 *                                                                             *
 * (1) THEORETICAL CHEMISTRY GROUP - UNIVERSITA' DI TORINO - TORINO (ITALY)    *
 * (2) SCIENTIFIC COMPUTING DEPARTMENT - STFC DARESBURY (UK)                   *
 * (3) UNIVERSIDAD AUTONOMA DEL ESTADO DE MORELOS - CUERNAVACA (MEXICO)        *
 * (4) UNIVERSITE' DE LORRAINE - NANCY (FRANCE)                                *
 * (5) UNIVERSITAET STUTTGART- STUTTGART (GERMANY)                             *
 * (6) IMPERIAL COLLEGE - LONDON (UK)                                          *
 * (7) SCIENTIFIC COMPUTING DEPARTMENT - STFC RAL (UK)                         *
 * (8) UPMC - SORBONNE UNIVERSITES - PARIS (FRANCE)                            *
 * (9) UNIVERSIDAD DE BARCELONA - BARCELONA (SPAIN)                            *
 *(10) UNIVERSITA' DI NAPOLI "FEDERICO II" - NAPOLI (ITALY)                    *
 *(11) NIS - NANOSTRUCTURED INTERFACES AND SURFACES - TORINO (ITALY)           *
 *(12) MPI FUER CHEMISCHE ENERGIEKONVERSION - MUELHEIM AN DER RUHR (GERMANY)   *
 *(13) UNIVERSITY OF TROMSO - TROMSO (NORWAY)                                  *
 *(14) UNIVERSITE' DE PAU ET DES PAYS DE L'ADOUR - PAU (FRANCE)                *
 *(15) UNIVERSITY OF CALIFORNIA SANTA BARBARA - SANTA BARBARA (USA)            *
 *(16) CURTIN UNIVERSITY - PERTH (AUSTRALIA)                                   *
 *(17) UNIVERSITY COLLEGE LONDON - LONDON (UK)                                 *
 *(18) UNIVERSITY OF VERMONT - BURLINGTON (USA)                                *
 *                                                                             *
 *******************************************************************************
 EEEEEEEEEE STARTING  DATE 20 11 2024 TIME 06:58:55.7
 3.4^2T137                                                                       

 CRYSTAL CALCULATION
 (INPUT ACCORDING TO THE INTERNATIONAL TABLES FOR X-RAY CRYSTALLOGRAPHY)
 CRYSTAL FAMILY                       :  CUBIC       
 CRYSTAL CLASS  (GROTH - 1921)        :  CUBIC DYAKISDODECAHEDRAL             

 SPACE GROUP (CENTROSYMMETRIC)        :  F M 3           

 LATTICE PARAMETERS  (ANGSTROMS AND DEGREES) - CONVENTIONAL CELL
        A           B           C        ALPHA        BETA       GAMMA
     8.71160     8.71160     8.71160    90.00000    90.00000    90.00000


 NUMBER OF IRREDUCIBLE ATOMS IN THE CONVENTIONAL CELL:    3

 INPUT COORDINATES

 ATOM AT. N.              COORDINATES
   1   6     7.500000000000E-01  7.500000000000E-01  2.500000000000E-01
   2   6     8.522800000000E-01  8.522800000000E-01  8.522800000000E-01
   3   6     0.000000000000E+00  9.225500000000E-01  7.858200000000E-01

 *******************************************************************************

 << INFORMATION >>: FROM NOW ON, ALL COORDINATES REFER TO THE PRIMITIVE CELL

 *******************************************************************************

 LATTICE PARAMETERS  (ANGSTROMS AND DEGREES) - PRIMITIVE CELL
       A          B          C        ALPHA      BETA     GAMMA        VOLUME
    6.16003    6.16003    6.16003    60.00000  60.00000  60.00000    165.285131

 COORDINATES OF THE EQUIVALENT ATOMS (FRACTIONAL UNITS)

 N. ATOM EQUIV AT. N.          X                  Y                  Z

   1   1   1    6 C     2.50000000000E-01  2.50000000000E-01  2.50000000000E-01
   2   1   2    6 C    -2.50000000000E-01 -2.50000000000E-01 -2.50000000000E-01

   3   2   1    6 C    -1.47720000000E-01 -1.47720000000E-01 -1.47720000000E-01
   4   2   2    6 C    -1.47720000000E-01 -1.47720000000E-01  4.43160000000E-01
   5   2   3    6 C     4.43160000000E-01 -1.47720000000E-01 -1.47720000000E-01
   6   2   4    6 C    -1.47720000000E-01  4.43160000000E-01 -1.47720000000E-01
   7   2   5    6 C     1.47720000000E-01  1.47720000000E-01  1.47720000000E-01
   8   2   6    6 C     1.47720000000E-01  1.47720000000E-01 -4.43160000000E-01
   9   2   7    6 C    -4.43160000000E-01  1.47720000000E-01  1.47720000000E-01
  10   2   8    6 C     1.47720000000E-01 -4.43160000000E-01  1.47720000000E-01

  11   3   1    6 C    -2.91630000000E-01 -1.36730000000E-01  1.36730000000E-01
  12   3   2    6 C    -1.36730000000E-01 -2.91630000000E-01  2.91630000000E-01
  13   3   3    6 C     2.91630000000E-01  1.36730000000E-01 -1.36730000000E-01
  14   3   4    6 C     1.36730000000E-01  2.91630000000E-01 -2.91630000000E-01
  15   3   5    6 C     1.36730000000E-01 -2.91630000000E-01 -1.36730000000E-01
  16   3   6    6 C    -1.36730000000E-01  1.36730000000E-01 -2.91630000000E-01
  17   3   7    6 C    -2.91630000000E-01  1.36730000000E-01  2.91630000000E-01
  18   3   8    6 C    -2.91630000000E-01  2.91630000000E-01 -1.36730000000E-01
  19   3   9    6 C     2.91630000000E-01 -1.36730000000E-01 -2.91630000000E-01
  20   3  10    6 C     1.36730000000E-01 -1.36730000000E-01  2.91630000000E-01
  21   3  11    6 C    -1.36730000000E-01  2.91630000000E-01  1.36730000000E-01
  22   3  12    6 C     2.91630000000E-01 -2.91630000000E-01  1.36730000000E-01

 NUMBER OF SYMMETRY OPERATORS         :   24
 *******************************************************************************
 * GEOMETRY EDITING - INPUT COORDINATES ARE GIVEN IN ANGSTROM         
 *******************************************************************************

 GEOMETRY NOW FULLY CONSISTENT WITH THE GROUP
 INFORMATION **** NEW DEFAULT **** FINALRUN 4 FOR GEOMETRY OPTIMIZATIONS
 INFORMATION **** NEW DEFAULT **** OPTGEOM OPTIMIZES BOTH ATOMIC COORDINATES AND CELL PARAMETERS
 INFORMATION **** NEW DEFAULT **** TOL. ON ATOMIC DISP TO REDEFINE REF. GEOMETRY: 0.8 Angs
 INFORMATION **** NEW DEFAULT **** N POINTS TO REDEFINE REF. GEOMETRY: N OF OPT DEGS OF FREEDOM
 INFORMATION **** NEW DEFAULT **** TOL. ON ENERGY TO REDEFINE REF. GEOMETRY: 10**-3*(5*N. ATOMS)
 INFORMATION **** FULLOPTG **** FULL OPTIMIZATION (ATOMS AND CELL PARAMETERS)
 INFORMATION **** MAXCYCLE ****   MAXIMUM NUMBER OF OPTIMIZATION CYCLES        1600

 IMPORTANT INFORMATION:
 THE COORDINATE SYSTEM ADOPTED IN THE OPTIMIZATION IS NOT IN
 GENERAL HOMOGENEOUS UNITS. FOR THIS REASON THE GRADIENT AND 
 HESSIAN MATRIX IN TERMS OF THIS SYSTEM ARE GIVEN WITHOUT
 UNITS. FOR MORE DETAILS SEE THE MANUAL.

 *******************************************************************************
 COMBINED CELL/ATOM OPTIMIZATION CONTROL

 INITIAL TRUST RADIUS         0.50000 MAXIMUM TRUST RADIUS               4.00000
 MAXIMUM GRADIENT COMPONENT   0.00045 MAXIMUM DISPLACEMENT COMPONENT     0.00180
 R.M.S. OF GRADIENT COMPONENT 0.00030 R.M.S. OF DISPLACEMENT COMPONENTS  0.00120
 THRESHOLD ON ENERGY CHANGE 0.100E-06 EXTRAPOLATING POLYNOMIAL ORDER           2
 MAXIMUM ALLOWED NUMBER OF STEPS 1600 SORTING OF ENERGY POINTS:               NO
 ANALYTICAL  GRADIENT                 HESSIAN UPDATING                      BFGS
 STEP SIZE NUMERICAL GRADIENT 0.00100
 INITIAL HESSIAN MATRIX: SCHLEGEL MODEL 2
 *******************************************************************************


 GCALCO - MAX INDICES DIRECT LATTICE VECTOR    14    14    14
 NO.OF VECTORS CREATED 6999 STARS  105 RMAX   123.19436 BOHR

 GEOMETRY FOR WAVE FUNCTION - DIMENSIONALITY OF THE SYSTEM    3
 (NON PERIODIC DIRECTION: LATTICE PARAMETER FORMALLY SET TO 500)
 *******************************************************************************
 LATTICE PARAMETERS (ANGSTROMS AND DEGREES) - BOHR = 0.5291772083 ANGSTROM
 PRIMITIVE CELL - CENTRING CODE 5/0 VOLUME=   165.285131 - DENSITY  2.652 g/cm^3
         A              B              C           ALPHA      BETA       GAMMA 
     6.16003143     6.16003143     6.16003143    60.000000  60.000000  60.000000
 *******************************************************************************
 ATOMS IN THE ASYMMETRIC UNIT    3 - ATOMS IN THE UNIT CELL:   22
     ATOM                 X/A                 Y/B                 Z/C    
 *******************************************************************************
      1 T   6 C     2.500000000000E-01  2.500000000000E-01  2.500000000000E-01
      2 F   6 C    -2.500000000000E-01 -2.500000000000E-01 -2.500000000000E-01
      3 T   6 C    -1.477200000000E-01 -1.477200000000E-01 -1.477200000000E-01
      4 F   6 C    -1.477200000000E-01 -1.477200000000E-01  4.431600000000E-01
      5 F   6 C     4.431600000000E-01 -1.477200000000E-01 -1.477200000000E-01
      6 F   6 C    -1.477200000000E-01  4.431600000000E-01 -1.477200000000E-01
      7 F   6 C     1.477200000000E-01  1.477200000000E-01  1.477200000000E-01
      8 F   6 C     1.477200000000E-01  1.477200000000E-01 -4.431600000000E-01
      9 F   6 C    -4.431600000000E-01  1.477200000000E-01  1.477200000000E-01
     10 F   6 C     1.477200000000E-01 -4.431600000000E-01  1.477200000000E-01
     11 T   6 C    -2.916300000000E-01 -1.367300000000E-01  1.367300000000E-01
     12 F   6 C    -1.367300000000E-01 -2.916300000000E-01  2.916300000000E-01
     13 F   6 C     2.916300000000E-01  1.367300000000E-01 -1.367300000000E-01
     14 F   6 C     1.367300000000E-01  2.916300000000E-01 -2.916300000000E-01
     15 F   6 C     1.367300000000E-01 -2.916300000000E-01 -1.367300000000E-01
     16 F   6 C    -1.367300000000E-01  1.367300000000E-01 -2.916300000000E-01
     17 F   6 C    -2.916300000000E-01  1.367300000000E-01  2.916300000000E-01
     18 F   6 C    -2.916300000000E-01  2.916300000000E-01 -1.367300000000E-01
     19 F   6 C     2.916300000000E-01 -1.367300000000E-01 -2.916300000000E-01
     20 F   6 C     1.367300000000E-01 -1.367300000000E-01  2.916300000000E-01
     21 F   6 C    -1.367300000000E-01  2.916300000000E-01  1.367300000000E-01
     22 F   6 C     2.916300000000E-01 -2.916300000000E-01  1.367300000000E-01

 TRANSFORMATION MATRIX PRIMITIVE-CRYSTALLOGRAPHIC CELL
 -1.0000  1.0000  1.0000  1.0000 -1.0000  1.0000  1.0000  1.0000 -1.0000

 *******************************************************************************
 CRYSTALLOGRAPHIC CELL (VOLUME=        661.14052558)
         A              B              C           ALPHA      BETA       GAMMA 
     8.71160000     8.71160000     8.71160000    90.000000  90.000000  90.000000

 COORDINATES IN THE CRYSTALLOGRAPHIC CELL
     ATOM                 X/A                 Y/B                 Z/C    
 *******************************************************************************
      1 T   6 C     2.500000000000E-01 -2.500000000000E-01 -2.500000000000E-01
      2 F   6 C    -2.500000000000E-01 -2.500000000000E-01 -2.500000000000E-01
      3 T   6 C    -1.477200000000E-01 -1.477200000000E-01 -1.477200000000E-01
      4 F   6 C     1.477200000000E-01  1.477200000000E-01 -1.477200000000E-01
      5 F   6 C    -1.477200000000E-01  1.477200000000E-01  1.477200000000E-01
      6 F   6 C     1.477200000000E-01 -1.477200000000E-01  1.477200000000E-01
      7 F   6 C     1.477200000000E-01  1.477200000000E-01  1.477200000000E-01
      8 F   6 C    -1.477200000000E-01 -1.477200000000E-01  1.477200000000E-01
      9 F   6 C     1.477200000000E-01 -1.477200000000E-01 -1.477200000000E-01
     10 F   6 C    -1.477200000000E-01  1.477200000000E-01 -1.477200000000E-01
     11 T   6 C     4.150120270562E-20 -7.745000000000E-02 -2.141800000000E-01
     12 F   6 C     1.279448095357E-17  7.745000000000E-02 -2.141800000000E-01
     13 F   6 C    -4.150120270562E-20  7.745000000000E-02  2.141800000000E-01
     14 F   6 C    -1.279448095357E-17 -7.745000000000E-02  2.141800000000E-01
     15 F   6 C    -2.141800000000E-01 -4.150120270562E-20 -7.745000000000E-02
     16 F   6 C    -7.745000000000E-02 -2.141800000000E-01  4.150120270562E-20
     17 F   6 C     2.141800000000E-01  1.279448095357E-17 -7.745000000000E-02
     18 F   6 C     7.745000000000E-02 -2.141800000000E-01  1.279448095357E-17
     19 F   6 C    -2.141800000000E-01 -1.279448095357E-17  7.745000000000E-02
     20 F   6 C     7.745000000000E-02  2.141800000000E-01 -4.150120270562E-20
     21 F   6 C     2.141800000000E-01  4.150120270562E-20  7.745000000000E-02
     22 F   6 C    -7.745000000000E-02  2.141800000000E-01 -1.279448095357E-17

 T = ATOM BELONGING TO THE ASYMMETRIC UNIT

 ****   24 SYMMOPS - TRANSLATORS IN FRACTIONAL UNITS
 **** MATRICES AND TRANSLATORS IN THE CRYSTALLOGRAPHIC REFERENCE FRAME
   V INV                    ROTATION MATRICES                   TRANSLATORS
   1   1  1.00  0.00  0.00  0.00  1.00  0.00  0.00  0.00  1.00  0.00  0.00  0.00
   2   2  0.00  1.00 -0.00  1.00  0.00  0.00 -1.00 -1.00 -1.00  0.00  0.00  0.00
   3   3 -1.00 -1.00 -1.00 -0.00 -0.00  1.00  0.00  1.00 -0.00  0.00  0.00  0.00
   4   4 -0.00 -0.00  1.00 -1.00 -1.00 -1.00  1.00  0.00  0.00  0.00  0.00  0.00
   5   6  0.00  0.00  1.00  1.00 -0.00  0.00 -0.00  1.00 -0.00  0.00  0.00  0.00
   6   5  0.00  1.00  0.00 -0.00  0.00  1.00  1.00 -0.00 -0.00  0.00  0.00  0.00
   7   8  1.00 -0.00  0.00  0.00  0.00  1.00 -1.00 -1.00 -1.00  0.00  0.00  0.00
   8   7  1.00 -0.00 -0.00 -1.00 -1.00 -1.00  0.00  1.00  0.00  0.00  0.00  0.00
   9  10 -1.00 -1.00 -1.00 -0.00  1.00 -0.00  1.00 -0.00  0.00  0.00  0.00  0.00
  10   9 -0.00  0.00  1.00  0.00  1.00  0.00 -1.00 -1.00 -1.00  0.00  0.00  0.00
  11  12 -0.00  1.00 -0.00 -1.00 -1.00 -1.00  0.00  0.00  1.00  0.00  0.00  0.00
  12  11 -1.00 -1.00 -1.00  1.00 -0.00 -0.00 -0.00  0.00  1.00  0.00  0.00  0.00
  13  13 -1.00 -0.00 -0.00 -0.00 -1.00  0.00  0.00  0.00 -1.00  0.00  0.00  0.00
  14  14 -0.00 -1.00  0.00 -1.00 -0.00 -0.00  1.00  1.00  1.00  0.00  0.00  0.00
  15  15  1.00  1.00  1.00  0.00  0.00 -1.00 -0.00 -1.00  0.00  0.00  0.00  0.00
  16  16  0.00  0.00 -1.00  1.00  1.00  1.00 -1.00 -0.00 -0.00  0.00  0.00  0.00
  17  18 -0.00 -0.00 -1.00 -1.00  0.00 -0.00  0.00 -1.00  0.00  0.00  0.00  0.00
  18  17 -0.00 -1.00 -0.00  0.00 -0.00 -1.00 -1.00  0.00  0.00  0.00  0.00  0.00
  19  20 -1.00  0.00 -0.00 -0.00 -0.00 -1.00  1.00  1.00  1.00  0.00  0.00  0.00
  20  19 -1.00  0.00  0.00  1.00  1.00  1.00 -0.00 -1.00 -0.00  0.00  0.00  0.00
  21  22  1.00  1.00  1.00  0.00 -1.00  0.00 -1.00  0.00 -0.00  0.00  0.00  0.00
  22  21  0.00 -0.00 -1.00 -0.00 -1.00 -0.00  1.00  1.00  1.00  0.00  0.00  0.00
  23  24  0.00 -1.00  0.00  1.00  1.00  1.00 -0.00 -0.00 -1.00  0.00  0.00  0.00
  24  23  1.00  1.00  1.00 -1.00  0.00  0.00  0.00 -0.00 -1.00  0.00  0.00  0.00

 DIRECT LATTICE VECTORS CARTESIAN COMPONENTS (ANGSTROM)
          X                    Y                    Z
   0.000000000000E+00   0.435580000000E+01   0.435580000000E+01
   0.435580000000E+01   0.000000000000E+00   0.435580000000E+01
   0.435580000000E+01   0.435580000000E+01   0.000000000000E+00


 CARTESIAN COORDINATES - PRIMITIVE CELL
 *******************************************************************************
 *      ATOM          X(ANGSTROM)         Y(ANGSTROM)         Z(ANGSTROM)
 *******************************************************************************
    1     6 C     2.177900000000E+00 -2.177900000000E+00 -2.177900000000E+00
    2     6 C    -2.177900000000E+00 -2.177900000000E+00 -2.177900000000E+00
    3     6 C    -1.286877552000E+00 -1.286877552000E+00 -1.286877552000E+00
    4     6 C     1.286877552000E+00  1.286877552000E+00 -1.286877552000E+00
    5     6 C    -1.286877552000E+00  1.286877552000E+00  1.286877552000E+00
    6     6 C     1.286877552000E+00 -1.286877552000E+00  1.286877552000E+00
    7     6 C     1.286877552000E+00  1.286877552000E+00  1.286877552000E+00
    8     6 C    -1.286877552000E+00 -1.286877552000E+00  1.286877552000E+00
    9     6 C     1.286877552000E+00 -1.286877552000E+00 -1.286877552000E+00
   10     6 C    -1.286877552000E+00  1.286877552000E+00 -1.286877552000E+00
   11     6 C     3.615418774903E-19 -6.747134200000E-01 -1.865850488000E+00
   12     6 C     1.114604002751E-16  6.747134200000E-01 -1.865850488000E+00
   13     6 C    -3.615418774903E-19  6.747134200000E-01  1.865850488000E+00
   14     6 C    -1.114604002751E-16 -6.747134200000E-01  1.865850488000E+00
   15     6 C    -1.865850488000E+00 -3.615418774903E-19 -6.747134200000E-01
   16     6 C    -6.747134200000E-01 -1.865850488000E+00  3.615418774903E-19
   17     6 C     1.865850488000E+00  1.114604002751E-16 -6.747134200000E-01
   18     6 C     6.747134200000E-01 -1.865850488000E+00  1.114604002751E-16
   19     6 C    -1.865850488000E+00 -1.114604002751E-16  6.747134200000E-01
   20     6 C     6.747134200000E-01  1.865850488000E+00 -3.615418774903E-19
   21     6 C     1.865850488000E+00  3.615418774903E-19  6.747134200000E-01
   22     6 C    -6.747134200000E-01  1.865850488000E+00 -1.114604002751E-16

 *******************************************************************************
 LOCAL ATOMIC FUNCTIONS BASIS SET
 *******************************************************************************
   ATOM   X(AU)   Y(AU)   Z(AU)  N. TYPE  EXPONENT  S COEF   P COEF   D/F/G COEF
 *******************************************************************************
   1 C    4.116  -4.116  -4.116
                                  1 S  
                                         1.358E+04 2.225E-04 0.000E+00 0.000E+00
                                         2.035E+03 1.723E-03 0.000E+00 0.000E+00
                                         4.632E+02 8.926E-03 0.000E+00 0.000E+00
                                         1.312E+02 3.573E-02 0.000E+00 0.000E+00
                                         4.285E+01 1.108E-01 0.000E+00 0.000E+00
                                         1.558E+01 2.430E-01 0.000E+00 0.000E+00
                                  2 S  
                                         6.207E+00 4.144E-01 0.000E+00 0.000E+00
                                         2.576E+00 2.374E-01 0.000E+00 0.000E+00
                                  3 S  
                                         4.941E-01 1.000E+00 0.000E+00 0.000E+00
                                  4 S  
                                         1.644E-01 1.000E+00 0.000E+00 0.000E+00
                           5-     7 P  
                                         3.470E+01 0.000E+00 5.333E-03 0.000E+00
                                         7.958E+00 0.000E+00 3.586E-02 0.000E+00
                                         2.378E+00 0.000E+00 1.422E-01 0.000E+00
                                         8.143E-01 0.000E+00 3.427E-01 0.000E+00
                           8-    10 P  
                                         5.662E-01 0.000E+00 1.000E+00 0.000E+00
                          11-    13 P  
                                         1.974E-01 0.000E+00 1.000E+00 0.000E+00
                          14-    18 D  
                                         5.792E-01 0.000E+00 0.000E+00 1.000E+00
   2 C   -4.116  -4.116  -4.116
   3 C   -2.432  -2.432  -2.432
   4 C    2.432   2.432  -2.432
   5 C   -2.432   2.432   2.432
   6 C    2.432  -2.432   2.432
   7 C    2.432   2.432   2.432
   8 C   -2.432  -2.432   2.432
   9 C    2.432  -2.432  -2.432
  10 C   -2.432   2.432  -2.432
  11 C    0.000  -1.275  -3.526
  12 C    0.000   1.275  -3.526
  13 C   -0.000   1.275   3.526
  14 C   -0.000  -1.275   3.526
  15 C   -3.526  -0.000  -1.275
  16 C   -1.275  -3.526   0.000
  17 C    3.526   0.000  -1.275
  18 C    1.275  -3.526   0.000
  19 C   -3.526  -0.000   1.275
  20 C    1.275   3.526  -0.000
  21 C    3.526   0.000   1.275
  22 C   -1.275   3.526  -0.000
 INFORMATION **** SET_MPP **** PCRYSTAL CALCULATION
 INFORMATION **** READM2 **** NEW DEFAULT: FOCK/KS MATRIX MIXING SET TO 30 %
 INFORMATION **** READM2 **** NEW DEFAULT: FULL DIRECT SCF MODE
 INFORMATION **** READM2 **** NEW DEFAULT: COULOMB BIPOLAR BUFFER SET TO 32 Mb
 INFORMATION **** READM2 **** NEW DEFAULT: EXCHANGE BIPOLAR BUFFER SET TO 32 Mb

 *******************************************************************************
 NEW DEFAULT: DFT INTEGRATION GRID INCREASED TO XLGRID
 NEW DEFAULT: DIIS ACCELERATOR ACTIVE
 USE KEYWORD NODIIS TO TURN IT OFF
 *******************************************************************************

 INFORMATION **** DFTD3_INPUT **** PERFORM LATEST DISPERSION CORRECTION DFT-D3(BJ) WITH AUTOMATIC PARAMETER SETUP
 PLEASE CITE:
 (1) DFT-D3 Reference
  S. Grimme, J. Antony, S. Ehrlich, and H. Krieg, J. Chem. Phys. 132 (2010), 154104
 (2) BJ-Damping Reference
  S. Grimme, S. Ehrlich, and L. Goerigk, J. Comput. Chem. 32 (2011), 1456-1465
 (3) General DFT-D Review
  S. Grimme, A. Hansen, J. G. Brandenburg, and C. Bannwarth,
  Chem. Rev. 116 (2016), 5105-5154

 INFORMATION **** TOLINTEG **** COULOMB AND EXCHANGE SERIES TOLERANCES MODIFIED
 INFORMATION **** TOLDEE **** SCF TOL ON TOTAL ENERGY SET TO           7
 INFORMATION **** READM2 **** FULL DIRECT SCF (MONO AND BIEL INT) SELECTED
 INFORMATION **** SAVEWF **** not fully tested
 INFORMATION **** SAVEPRED **** WRITING REDUCIBLE DENSITY MATRIX IN UNIT 13
 INFORMATION **** BIPOSIZE **** COULOMB BIPOLAR BUFFER SET TO   110000000
 INFORMATION **** EXCHSIZE **** EXCHANGE BIPOLAR BUFFER SIZE SET TO   110000000
 INFORMATION **** MAXCYCLE **** MAX NUMBER OF SCF CYCLES SET TO        1600
 INFORMATION **** DIIS **** DIIS FOR SCF ACTIVE
 INFORMATION **** DIIS **** LEVEL SHIFTER DISABLED
 INFORMATION **** PPAN ****  MULLIKEN POPULATION ANALYSIS AT THE END OF SCF
 *******************************************************************************
 N. OF ATOMS PER CELL        22  COULOMB OVERLAP TOL         (T1) 10**   -7
 NUMBER OF SHELLS           176  COULOMB PENETRATION TOL     (T2) 10**   -7
 NUMBER OF AO               396  EXCHANGE OVERLAP TOL        (T3) 10**   20
 N. OF ELECTRONS PER CELL   132  EXCHANGE PSEUDO OVP (F(G))  (T4) 10**   20
 CORE ELECTRONS PER CELL     44  EXCHANGE PSEUDO OVP (P(G))  (T5) 10**   20
 N. OF SYMMETRY OPERATORS    24  POLE ORDER IN MONO ZONE                  4
 *******************************************************************************
 TYPE OF CALCULATION :  UNRESTRICTED OPEN SHELL
 KOHN-SHAM HAMILTONIAN

 (EXCHANGE)[CORRELATION] FUNCTIONAL:(PERDEW-BURKE-ERNZERHOF)[PERDEW-BURKE-ERNZERHOF]


 SPIN POLARIZED DFT SELECTED

 CAPPA:IS1  5;IS2  5;IS3  5; K PTS MONK NET  11; SYMMOPS:K SPACE  24;G SPACE  24

 *******************************************************************************
 MAX NUMBER OF SCF CYCLES    1600  CONVERGENCE ON DELTAP        10**-17
 WEIGHT OF F(I) IN F(I+1)      80% CONVERGENCE ON ENERGY        10**- 7
 SHRINK. FACT.(MONKH.)    5  5  5  NUMBER OF K POINTS IN THE IBZ     11
 SHRINKING FACTOR(GILAT NET)   10  NUMBER OF K POINTS(GILAT NET)     61
 *******************************************************************************
 *** K POINTS COORDINATES (OBLIQUE COORDINATES IN UNITS OF IS =  5)
   1-R(  0  0  0)   2-C(  1  0  0)   3-C(  2  0  0)   4-C(  1  1  0)
   5-C(  2  1  0)   6-C(  3  1  0)   7-C(  4  1  0)   8-C(  2  2  0)
   9-C(  3  2  0)  10-C(  3  2  1)  11-C(  4  2  1)

 DIRECT LATTICE VECTORS COMPON. (A.U.)     RECIP. LATTICE VECTORS COMPON. (A.U.) 
        X            Y            Z              X            Y            Z
    0.0000000    8.2312691    8.2312691     -0.3816656    0.3816656    0.3816656
    8.2312691    0.0000000    8.2312691      0.3816656   -0.3816656    0.3816656
    8.2312691    8.2312691    0.0000000      0.3816656    0.3816656   -0.3816656

 DISK SPACE FOR EIGENVECTORS (FTN 10)     3293136 REALS

 SYMMETRY ADAPTION OF THE BLOCH FUNCTIONS ENABLED
 TTTTTTTTTTTTTTTTTTTTTTTTTTTTTT gordsh1     TELAPSE        0.95 TCPU        0.32
 MMMMM gordsh1     USED MEM(MB)      2.82 MAX MEM      2.92 TOT MEM        90.14

 MATRIX SIZE: P(G)  409828, F(G)  205640, P(G) IRR   10115, F(G) IRR   10115
 MAX G-VECTOR INDEX FOR 1- AND 2-ELECTRON INTEGRALS  43

 TTTTTTTTTTTTTTTTTTTTTTTTTTTTTT INPUT       TELAPSE        0.95 TCPU        0.32
 MMMMM INPUT       USED MEM(MB)      3.36 MAX MEM      3.64 TOT MEM       107.63

 NEIGHBORS OF THE NON-EQUIVALENT ATOMS

 N = NUMBER OF NEIGHBORS AT DISTANCE R
    ATOM  N     R/ANG      R/AU   NEIGHBORS (ATOM LABELS AND CELL INDICES)
   1 C    4     1.5433     2.9164    7 C   -1 0 0    8 C   -1 0 1    9 C    0 0 0
                                    10 C   -1 1 0
   1 C   12     2.6646     5.0354   11 C    0 0 0   12 C   -1 1 0   13 C   -1 0 0
                                    14 C   -1 0 1   15 C   -1 1 0   16 C   -1 0 1
                                    17 C    0 0 0   18 C    0 0 0   19 C   -1 0 1
                                    20 C   -1 0 0   21 C   -1 0 0   22 C   -1 1 0
   1 C   12     3.6025     6.8077   11 C   -1 1 0   12 C    0 0 0   13 C   -1 0 1
                                    14 C   -1 0 0   15 C   -1 0 1   16 C    0 0 0
                                    17 C   -1 0 0   18 C   -1 0 1   19 C   -1 1 0
                                    20 C   -1 1 0   21 C    0 0 0   22 C   -1 0 0
   1 C   12     3.6868     6.9671    3 C    0 0 0    3 C   -1 0 1    3 C   -1 1 0
                                     4 C   -1 1 0    4 C   -1 0 0    4 C    0 0 0
                                     5 C   -1 0 0    5 C   -1 1 0    5 C   -1 0 1
                                     6 C   -1 0 1    6 C    0 0 0    6 C   -1 0 0
   1 C    6     4.3558     8.2313    2 C    0 0 0    2 C   -1 0 1    2 C   -1 1 0
                                     2 C    0 1 0    2 C    0 0 1    2 C   -1 1 1
   1 C   12     4.8327     9.1324   11 C   -1 0 1   12 C   -1 0 0   13 C   -1 1 0
                                    14 C    0 0 0   15 C    0 0 0   16 C   -1 1 0
                                    17 C   -1 1 0   18 C   -1 0 0   19 C   -1 0 0
                                    20 C    0 0 0   21 C   -1 0 1   22 C   -1 0 1

   3 C    3     1.5382     2.9067   11 C    0 0 0   15 C    0 0 0   16 C    0 0 0
   3 C    1     1.5433     2.9164    2 C    0 0 0
   3 C    3     2.4164     4.5664   12 C    0 0 0   18 C    0 0 0   19 C    0 0 0
   3 C    3     2.5202     4.7625    4 C    0 0-1    5 C   -1 0 0    6 C    0-1 0
   3 C    3     2.5738     4.8637    8 C    0 0 0    9 C    0 0 0   10 C    0 0 0
   3 C    3     2.9725     5.6172   13 C   -1 0 0   20 C    0 0-1   21 C    0-1 0

  11 C    1     1.3494     2.5500   12 C    0 0 0
  11 C    2     1.5382     2.9067    3 C    0 0 0    9 C    0 0 0
  11 C    4     2.3142     4.3732   15 C    0 0 0   16 C    0 0 0   17 C    0 0 0
                                    18 C    0 0 0
  11 C    2     2.4164     4.5664    4 C    0 0 0   10 C    0 0 0
  11 C    2     2.6646     5.0354    1 C    0 0 0    2 C    0 0 0
  11 C    2     2.9725     5.6172    5 C   -1 0 0    7 C   -1 0 0


 SYMMETRY ALLOWED ELASTIC DISTORTION 1
  0.5773503  0.0000000  0.0000000
  0.0000000  0.5773503  0.0000000
  0.0000000  0.0000000  0.5773503

 SYMMETRY ALLOWED INTERNAL DEGREE(S) OF FREEDOM:   3
 TTTTTTTTTTTTTTTTTTTTTTTTTTTTTT SYMM        TELAPSE        0.99 TCPU        0.35
 MMMMM SYMM        USED MEM(MB)      3.45 MAX MEM      6.44 TOT MEM       110.26
 TTTTTTTTTTTTTTTTTTTTTTTTTTTTTT INT_SCREEN  TELAPSE        1.00 TCPU        0.35
 MMMMM INT_SCREEN  USED MEM(MB)      5.32 MAX MEM      5.33 TOT MEM       170.33

 *******************************************************************************
 *                             OPTIMIZATION STARTS                             *
 *******************************************************************************
 RECLASIFICATION OF INDICES FOR INTEGRAL CALC ACCORDING TO DIFFERENT CRITERIA:
           FIXDELTE                  FIXDELTX              FIXDELTN
          0.10000000               0.80000000                 10
 *******************************************************************************

 *******************************************************************************
 COORDINATE AND CELL OPTIMIZATION - POINT    1

 DFT PARAMETERS

     ATOM       ELECTRONS   NET CHARGE   R(ANGSTROM)
   1   6  C       6.0000      0.0000     0.77000000

 SIZE OF GRID=      27160
 TTTTTTTTTTTTTTTTTTTTTTTTTTTTTT MAKE_GRID2  TELAPSE        1.26 TCPU        0.61
 MMMMM MAKE_GRID2  USED MEM(MB)      7.05 MAX MEM      8.45 TOT MEM       225.45
 BECKE WEIGHT FUNCTION
 RADSAFE =     2.00
 TOLERANCES - DENSITY:10**- 6; POTENTIAL:10**- 9; GRID WGT:10**-14

 RADIAL INTEGRATION  - INTERVALS (POINTS,UPPER LIMIT):            1( 75,  4.0*R)

 ANGULAR INTEGRATION - INTERVALS (ACCURACY LEVEL [N. POINTS] UPPER LIMIT):
  1(  4[  86]   0.2)  2(  8[ 194]   0.5)  3( 12[ 350]   0.9)  4( 16[ 974]   3.5)
  5( 12[ 350]9999.0)
 TTTTTTTTTTTTTTTTTTTTTTTTTTTTTT INT_CALC    TELAPSE        1.28 TCPU        0.64
 MMMMM INT_CALC    USED MEM(MB)      8.04 MAX MEM      8.04 TOT MEM       257.13

 *******************************************************************************
 3.4^2T137                                                                       
 CRYSTAL - SCF - TYPE OF CALCULATION :  UNRESTRICTED OPEN SHELL
 *******************************************************************************

 CAPPA:IS1  5;IS2  5;IS3  5; K PTS MONK NET  11; SYMMOPS:K SPACE  24;G SPACE  24

 TTTTTTTTTTTTTTTTTTTTTTTTTTTTTT SDIK        TELAPSE        1.36 TCPU        0.71
 MMMMM SDIK        USED MEM(MB)     24.58 MAX MEM     24.90 TOT MEM       742.68

 AAAAAAAAAAAAAAAAAAAAAAAAAAAAAAAAAAAAAAAAAAAAAAAAAAAAAAAAAAAAAAAAAAAAAAAAAAAAAAA
         ATOMIC WAVEFUNCTION(S)


 NUCLEAR CHARGE  6.0  SYMMETRY SPECIES            S    P
 N. ELECTRONS    6.0  NUMBER OF PRIMITIVE GTOS   10    6
                      NUMBER OF CONTRACTED GTOS   4    3
                      NUMBER OF CLOSED SHELLS     2    0
                      OPEN SHELL OCCUPATION       0    2

  ZNUC  SCFIT    TOTAL HF ENERGY   KINETIC ENERGY   VIRIAL THEOREM ACCURACY
   6.0    10    -3.768111494E+01  3.771190961E+01 -1.999183423E+00  3.4E-06

 AAAAAAAAAAAAAAAAAAAAAAAAAAAAAAAAAAAAAAAAAAAAAAAAAAAAAAAAAAAAAAAAAAAAAAAAAAAAAAA

 CHARGE NORMALIZATION FACTOR   1.00000000
 TOTAL ATOMIC CHARGES:
   6.0000000   6.0000000   6.0000000   6.0000000   6.0000000   6.0000000
   6.0000000   6.0000000   6.0000000   6.0000000   6.0000000   6.0000000
   6.0000000   6.0000000   6.0000000   6.0000000   6.0000000   6.0000000
   6.0000000   6.0000000   6.0000000   6.0000000
 SUMMED SPIN DENSITY           0.00000000
 TOTAL ATOMIC SPINS  :
   0.0000000   0.0000000   0.0000000   0.0000000   0.0000000   0.0000000
   0.0000000   0.0000000   0.0000000   0.0000000   0.0000000   0.0000000
   0.0000000   0.0000000   0.0000000   0.0000000   0.0000000   0.0000000
   0.0000000   0.0000000   0.0000000   0.0000000
 TTTTTTTTTTTTTTTTTTTTTTTTTTTTTT MOQGAD      TELAPSE        1.37 TCPU        0.72
 MMMMM MOQGAD      USED MEM(MB)     18.34 MAX MEM     24.58 TOT MEM       586.86
 TTTTTTTTTTTTTTTTTTTTTTTTTTTTTT SHELLXN     TELAPSE        3.71 TCPU        3.06
 MMMMM SHELLXN     USED MEM(MB)     18.49 MAX MEM     33.92 TOT MEM       591.80
 TTTTTTTTTTTTTTTTTTTTTTTTTTTTTT MONMO3      TELAPSE        3.74 TCPU        3.08
 MMMMM MONMO3      USED MEM(MB)     18.49 MAX MEM     18.49 TOT MEM       591.80
 NUMERICALLY INTEGRATED DENSITY     65.9999398060     65.9999398060
 TTTTTTTTTTTTTTTTTTTTTTTTTTTTTT NUMDFT      TELAPSE        4.15 TCPU        3.50
 MMMMM NUMDFT      USED MEM(MB)     24.75 MAX MEM     41.88 TOT MEM       791.91
 CYC   0 ETOT(AU) -8.439542652559E+02 DETOT -8.44E+02 tst  0.00E+00 PX  1.00E+00
 CYCLE  0 WAVE FUNCTION SAVED IN FORTRAN UNIT 79
 TTTTTTTTTTTTTTTTTTTTTTTTTTTTTT DIIS        TELAPSE        5.13 TCPU        3.55
 MMMMM DIIS        USED MEM(MB)     41.46 MAX MEM     51.36 TOT MEM      1238.97
 TTTTTTTTTTTTTTTTTTTTTTTTTTTTTT FDIK        TELAPSE        5.93 TCPU        4.35
 MMMMM FDIK        USED MEM(MB)     31.73 MAX MEM     41.46 TOT MEM      1015.47

    ALPHA      ELECTRONS
 INSULATING STATE
 TOP OF VALENCE BANDS -    BAND     66; K    8; EIG -2.8440019E-01 AU
 TOP OF VALENCE BANDS -    BAND     66; K    1; EIG -2.8808126E-01 AU
 BOTTOM OF VIRTUAL BANDS - BAND     67; K    3; EIG -1.6927584E-01 AU
 INDIRECT ENERGY BAND GAP:   3.1327 eV
 BOTTOM OF VIRTUAL BANDS - BAND     67; K    1; EIG -1.5750590E-01 AU

    BETA       ELECTRONS
 INSULATING STATE
 TOP OF VALENCE BANDS -    BAND     66; K    8; EIG -2.8440019E-01 AU
 TOP OF VALENCE BANDS -    BAND     66; K    1; EIG -2.8808126E-01 AU
 BOTTOM OF VIRTUAL BANDS - BAND     67; K    3; EIG -1.6927584E-01 AU
 INDIRECT ENERGY BAND GAP:   3.1327 eV
 BOTTOM OF VIRTUAL BANDS - BAND     67; K    1; EIG -1.5750590E-01 AU
 TTTTTTTTTTTTTTTTTTTTTTTTTTTTTT PDIG        TELAPSE        5.98 TCPU        4.40
 MMMMM PDIG        USED MEM(MB)     24.71 MAX MEM     32.08 TOT MEM       790.70
 CHARGE NORMALIZATION FACTOR   1.00000000
 TOTAL ATOMIC CHARGES:
   5.8447419   5.8447419   6.2367785   6.2367785   6.2367785   6.2367785
   6.2367785   6.2367785   6.2367785   6.2367785   5.8680240   5.8680240
   5.8680240   5.8680240   5.8680240   5.8680240   5.8680240   5.8680240
   5.8680240   5.8680240   5.8680240   5.8680240
 SUMMED SPIN DENSITY           0.00000000
 TOTAL ATOMIC SPINS  :
  -0.0000000  -0.0000000  -0.0000000  -0.0000000  -0.0000000  -0.0000000
  -0.0000000  -0.0000000  -0.0000000  -0.0000000   0.0000000   0.0000000
   0.0000000   0.0000000   0.0000000   0.0000000   0.0000000   0.0000000
   0.0000000   0.0000000   0.0000000   0.0000000
 TTTTTTTTTTTTTTTTTTTTTTTTTTTTTT MOQGAD      TELAPSE        5.99 TCPU        4.41
 MMMMM MOQGAD      USED MEM(MB)     24.75 MAX MEM     25.17 TOT MEM       791.91
 TTTTTTTTTTTTTTTTTTTTTTTTTTTTTT SHELLXN     TELAPSE        8.75 TCPU        7.16
 MMMMM SHELLXN     USED MEM(MB)     24.90 MAX MEM     40.33 TOT MEM       796.85
 TTTTTTTTTTTTTTTTTTTTTTTTTTTTTT MONMO3      TELAPSE        8.78 TCPU        7.19
 MMMMM MONMO3      USED MEM(MB)     24.90 MAX MEM     24.90 TOT MEM       796.85
 NUMERICALLY INTEGRATED DENSITY     65.9999525533     65.9999525533
 TTTTTTTTTTTTTTTTTTTTTTTTTTTTTT NUMDFT      TELAPSE        9.17 TCPU        7.58
 MMMMM NUMDFT      USED MEM(MB)     24.90 MAX MEM     42.03 TOT MEM       796.85
 CYC   1 ETOT(AU) -8.371062895686E+02 DETOT  6.85E+00 tst  0.00E+00 PX  1.00E+00
 CYCLE  1 WAVE FUNCTION SAVED IN FORTRAN UNIT 79
 TTTTTTTTTTTTTTTTTTTTTTTTTTTTTT DIIS        TELAPSE       10.65 TCPU        7.59
 MMMMM DIIS        USED MEM(MB)     41.62 MAX MEM     51.51 TOT MEM      1243.91
 DIIS TEST: 0.37456E+01 AT SCF   CYCLE   1 - MIX   80 %
 TTTTTTTTTTTTTTTTTTTTTTTTTTTTTT FDIK        TELAPSE       10.98 TCPU        7.92
 MMMMM FDIK        USED MEM(MB)     31.89 MAX MEM     41.62 TOT MEM      1020.41

    ALPHA      ELECTRONS
 INSULATING STATE
 TOP OF VALENCE BANDS -    BAND     66; K    8; EIG -2.4878756E-01 AU
 TOP OF VALENCE BANDS -    BAND     66; K    1; EIG -2.5231235E-01 AU
 BOTTOM OF VIRTUAL BANDS - BAND     67; K    3; EIG -1.4007436E-01 AU
 INDIRECT ENERGY BAND GAP:   2.9582 eV
 BOTTOM OF VIRTUAL BANDS - BAND     67; K    1; EIG -1.2832451E-01 AU

    BETA       ELECTRONS
 INSULATING STATE
 TOP OF VALENCE BANDS -    BAND     66; K    8; EIG -2.4878756E-01 AU
 TOP OF VALENCE BANDS -    BAND     66; K    1; EIG -2.5231235E-01 AU
 BOTTOM OF VIRTUAL BANDS - BAND     67; K    3; EIG -1.4007436E-01 AU
 INDIRECT ENERGY BAND GAP:   2.9582 eV
 BOTTOM OF VIRTUAL BANDS - BAND     67; K    1; EIG -1.2832451E-01 AU
 TTTTTTTTTTTTTTTTTTTTTTTTTTTTTT PDIG        TELAPSE       11.03 TCPU        7.97
 MMMMM PDIG        USED MEM(MB)     24.86 MAX MEM     32.24 TOT MEM       795.64
 CHARGE NORMALIZATION FACTOR   1.00000000
 TOTAL ATOMIC CHARGES:
   5.8736559   5.8736559   6.2521916   6.2521916   6.2521916   6.2521916
   6.2521916   6.2521916   6.2521916   6.2521916   5.8529296   5.8529296
   5.8529296   5.8529296   5.8529296   5.8529296   5.8529296   5.8529296
   5.8529296   5.8529296   5.8529296   5.8529296
 SUMMED SPIN DENSITY           0.00000000
 TOTAL ATOMIC SPINS  :
  -0.0000000  -0.0000000  -0.0000000  -0.0000000  -0.0000000  -0.0000000
  -0.0000000  -0.0000000  -0.0000000  -0.0000000   0.0000000   0.0000000
   0.0000000   0.0000000   0.0000000   0.0000000   0.0000000   0.0000000
   0.0000000   0.0000000   0.0000000   0.0000000
 TTTTTTTTTTTTTTTTTTTTTTTTTTTTTT MOQGAD      TELAPSE       11.04 TCPU        7.98
 MMMMM MOQGAD      USED MEM(MB)     24.90 MAX MEM     25.32 TOT MEM       796.85
 TTTTTTTTTTTTTTTTTTTTTTTTTTTTTT SHELLXN     TELAPSE       13.80 TCPU       10.73
 MMMMM SHELLXN     USED MEM(MB)     25.06 MAX MEM     40.49 TOT MEM       801.78
 TTTTTTTTTTTTTTTTTTTTTTTTTTTTTT MONMO3      TELAPSE       13.82 TCPU       10.76
 MMMMM MONMO3      USED MEM(MB)     25.06 MAX MEM     25.06 TOT MEM       801.78
 NUMERICALLY INTEGRATED DENSITY     65.9999506368     65.9999506368
 TTTTTTTTTTTTTTTTTTTTTTTTTTTTTT NUMDFT      TELAPSE       14.21 TCPU       11.14
 MMMMM NUMDFT      USED MEM(MB)     25.06 MAX MEM     42.19 TOT MEM       801.78
 CYC   2 ETOT(AU) -8.371781368605E+02 DETOT -7.18E-02 tst  9.87E-05 PX  2.29E-02
 CYCLE  2 WAVE FUNCTION SAVED IN FORTRAN UNIT 79
 TTTTTTTTTTTTTTTTTTTTTTTTTTTTTT DIIS        TELAPSE       15.67 TCPU       11.35
 MMMMM DIIS        USED MEM(MB)     41.77 MAX MEM     51.67 TOT MEM      1248.85
 DIIS TEST: 0.12980E+01 AT SCF   CYCLE   2 - DIIS ACTIVE - HISTORY:     2 CYCLES
 TTTTTTTTTTTTTTTTTTTTTTTTTTTTTT FDIK        TELAPSE       16.03 TCPU       11.71
 MMMMM FDIK        USED MEM(MB)     32.04 MAX MEM     41.77 TOT MEM      1025.35

    ALPHA      ELECTRONS
 INSULATING STATE
 TOP OF VALENCE BANDS -    BAND     66; K    8; EIG -1.4631887E-01 AU
 TOP OF VALENCE BANDS -    BAND     66; K    1; EIG -1.5050016E-01 AU
 BOTTOM OF VIRTUAL BANDS - BAND     67; K    3; EIG -4.5794654E-02 AU
 INDIRECT ENERGY BAND GAP:   2.7354 eV
 BOTTOM OF VIRTUAL BANDS - BAND     67; K    1; EIG -3.3271821E-02 AU

    BETA       ELECTRONS
 INSULATING STATE
 TOP OF VALENCE BANDS -    BAND     66; K    8; EIG -1.4631887E-01 AU
 TOP OF VALENCE BANDS -    BAND     66; K    1; EIG -1.5050016E-01 AU
 BOTTOM OF VIRTUAL BANDS - BAND     67; K    3; EIG -4.5794654E-02 AU
 INDIRECT ENERGY BAND GAP:   2.7354 eV
 BOTTOM OF VIRTUAL BANDS - BAND     67; K    1; EIG -3.3271821E-02 AU
 TTTTTTTTTTTTTTTTTTTTTTTTTTTTTT PDIG        TELAPSE       16.08 TCPU       11.76
 MMMMM PDIG        USED MEM(MB)     25.02 MAX MEM     32.39 TOT MEM       800.58
 CHARGE NORMALIZATION FACTOR   1.00000000
 TOTAL ATOMIC CHARGES:
   5.7485032   5.7485032   6.2066267   6.2066267   6.2066267   6.2066267
   6.2066267   6.2066267   6.2066267   6.2066267   5.9041650   5.9041650
   5.9041650   5.9041650   5.9041650   5.9041650   5.9041650   5.9041650
   5.9041650   5.9041650   5.9041650   5.9041650
 SUMMED SPIN DENSITY           0.00000000
 TOTAL ATOMIC SPINS  :
   0.0000000   0.0000000  -0.0000000  -0.0000000  -0.0000000  -0.0000000
  -0.0000000  -0.0000000  -0.0000000  -0.0000000   0.0000000   0.0000000
   0.0000000   0.0000000   0.0000000   0.0000000   0.0000000   0.0000000
   0.0000000   0.0000000   0.0000000   0.0000000
 TTTTTTTTTTTTTTTTTTTTTTTTTTTTTT MOQGAD      TELAPSE       16.09 TCPU       11.77
 MMMMM MOQGAD      USED MEM(MB)     25.06 MAX MEM     25.48 TOT MEM       801.78
 TTTTTTTTTTTTTTTTTTTTTTTTTTTTTT SHELLXN     TELAPSE       18.85 TCPU       14.52
 MMMMM SHELLXN     USED MEM(MB)     25.21 MAX MEM     40.64 TOT MEM       806.72
 TTTTTTTTTTTTTTTTTTTTTTTTTTTTTT MONMO3      TELAPSE       18.87 TCPU       14.55
 MMMMM MONMO3      USED MEM(MB)     25.21 MAX MEM     25.21 TOT MEM       806.72
 NUMERICALLY INTEGRATED DENSITY     65.9999495723     65.9999495723
 TTTTTTTTTTTTTTTTTTTTTTTTTTTTTT NUMDFT      TELAPSE       19.26 TCPU       14.93
 MMMMM NUMDFT      USED MEM(MB)     25.21 MAX MEM     42.34 TOT MEM       806.72
 CYC   3 ETOT(AU) -8.372208785050E+02 DETOT -4.27E-02 tst  7.93E-04 PX  7.88E-02
 CYCLE  3 WAVE FUNCTION SAVED IN FORTRAN UNIT 79
 TTTTTTTTTTTTTTTTTTTTTTTTTTTTTT DIIS        TELAPSE       20.49 TCPU       15.76
 MMMMM DIIS        USED MEM(MB)     41.93 MAX MEM     51.82 TOT MEM      1253.79
 DIIS TEST: 0.48497E+00 AT SCF   CYCLE   3 - DIIS ACTIVE - HISTORY:     3 CYCLES
 TTTTTTTTTTTTTTTTTTTTTTTTTTTTTT FDIK        TELAPSE       20.81 TCPU       16.08
 MMMMM FDIK        USED MEM(MB)     32.20 MAX MEM     41.93 TOT MEM      1030.29

    ALPHA      ELECTRONS
 INSULATING STATE
 TOP OF VALENCE BANDS -    BAND     66; K    8; EIG -1.4727516E-01 AU
 TOP OF VALENCE BANDS -    BAND     66; K    1; EIG -1.5117306E-01 AU
 BOTTOM OF VIRTUAL BANDS - BAND     67; K    3; EIG -4.7139741E-02 AU
 INDIRECT ENERGY BAND GAP:   2.7248 eV
 BOTTOM OF VIRTUAL BANDS - BAND     67; K    1; EIG -3.4537684E-02 AU

    BETA       ELECTRONS
 INSULATING STATE
 TOP OF VALENCE BANDS -    BAND     66; K    8; EIG -1.4727516E-01 AU
 TOP OF VALENCE BANDS -    BAND     66; K    1; EIG -1.5117306E-01 AU
 BOTTOM OF VIRTUAL BANDS - BAND     67; K    3; EIG -4.7139741E-02 AU
 INDIRECT ENERGY BAND GAP:   2.7248 eV
 BOTTOM OF VIRTUAL BANDS - BAND     67; K    1; EIG -3.4537684E-02 AU
 TTTTTTTTTTTTTTTTTTTTTTTTTTTTTT PDIG        TELAPSE       20.86 TCPU       16.13
 MMMMM PDIG        USED MEM(MB)     25.17 MAX MEM     32.54 TOT MEM       805.51
 CHARGE NORMALIZATION FACTOR   1.00000000
 TOTAL ATOMIC CHARGES:
   5.8916010   5.8916010   6.2242815   6.2242815   6.2242815   6.2242815
   6.2242815   6.2242815   6.2242815   6.2242815   5.8685455   5.8685455
   5.8685455   5.8685455   5.8685455   5.8685455   5.8685455   5.8685455
   5.8685455   5.8685455   5.8685455   5.8685455
 SUMMED SPIN DENSITY           0.00000000
 TOTAL ATOMIC SPINS  :
   0.0000000   0.0000000  -0.0000000  -0.0000000  -0.0000000  -0.0000000
  -0.0000000  -0.0000000  -0.0000000  -0.0000000   0.0000000   0.0000000
   0.0000000   0.0000000   0.0000000   0.0000000   0.0000000   0.0000000
   0.0000000   0.0000000   0.0000000   0.0000000
 TTTTTTTTTTTTTTTTTTTTTTTTTTTTTT MOQGAD      TELAPSE       20.87 TCPU       16.14
 MMMMM MOQGAD      USED MEM(MB)     25.21 MAX MEM     25.63 TOT MEM       806.72
 TTTTTTTTTTTTTTTTTTTTTTTTTTTTTT SHELLXN     TELAPSE       23.62 TCPU       18.88
 MMMMM SHELLXN     USED MEM(MB)     25.36 MAX MEM     40.79 TOT MEM       811.66
 TTTTTTTTTTTTTTTTTTTTTTTTTTTTTT MONMO3      TELAPSE       23.64 TCPU       18.90
 MMMMM MONMO3      USED MEM(MB)     25.36 MAX MEM     25.36 TOT MEM       811.66
 NUMERICALLY INTEGRATED DENSITY     65.9999492346     65.9999492346
 TTTTTTTTTTTTTTTTTTTTTTTTTTTTTT NUMDFT      TELAPSE       24.02 TCPU       19.28
 MMMMM NUMDFT      USED MEM(MB)     25.36 MAX MEM     42.50 TOT MEM       811.66
 CYC   4 ETOT(AU) -8.372293113204E+02 DETOT -8.43E-03 tst  7.31E-05 PX  3.59E-02
 CYCLE  4 WAVE FUNCTION SAVED IN FORTRAN UNIT 79
 TTTTTTTTTTTTTTTTTTTTTTTTTTTTTT DIIS        TELAPSE       24.91 TCPU       19.57
 MMMMM DIIS        USED MEM(MB)     42.08 MAX MEM     51.97 TOT MEM      1258.72
 DIIS TEST: 0.33481E-01 AT SCF   CYCLE   4 - DIIS ACTIVE - HISTORY:     4 CYCLES
 TTTTTTTTTTTTTTTTTTTTTTTTTTTTTT FDIK        TELAPSE       25.22 TCPU       19.88
 MMMMM FDIK        USED MEM(MB)     32.35 MAX MEM     42.08 TOT MEM      1035.23

    ALPHA      ELECTRONS
 INSULATING STATE
 TOP OF VALENCE BANDS -    BAND     66; K    8; EIG -1.4807656E-01 AU
 TOP OF VALENCE BANDS -    BAND     66; K    1; EIG -1.5195114E-01 AU
 BOTTOM OF VIRTUAL BANDS - BAND     67; K    3; EIG -4.8019036E-02 AU
 INDIRECT ENERGY BAND GAP:   2.7227 eV
 BOTTOM OF VIRTUAL BANDS - BAND     67; K    1; EIG -3.5647453E-02 AU

    BETA       ELECTRONS
 INSULATING STATE
 TOP OF VALENCE BANDS -    BAND     66; K    8; EIG -1.4807656E-01 AU
 TOP OF VALENCE BANDS -    BAND     66; K    1; EIG -1.5195114E-01 AU
 BOTTOM OF VIRTUAL BANDS - BAND     67; K    3; EIG -4.8019036E-02 AU
 INDIRECT ENERGY BAND GAP:   2.7227 eV
 BOTTOM OF VIRTUAL BANDS - BAND     67; K    1; EIG -3.5647453E-02 AU
 TTTTTTTTTTTTTTTTTTTTTTTTTTTTTT PDIG        TELAPSE       25.27 TCPU       19.93
 MMMMM PDIG        USED MEM(MB)     25.33 MAX MEM     32.70 TOT MEM       810.45
 CHARGE NORMALIZATION FACTOR   1.00000000
 TOTAL ATOMIC CHARGES:
   5.8465563   5.8465563   6.2317826   6.2317826   6.2317826   6.2317826
   6.2317826   6.2317826   6.2317826   6.2317826   5.8710522   5.8710522
   5.8710522   5.8710522   5.8710522   5.8710522   5.8710522   5.8710522
   5.8710522   5.8710522   5.8710522   5.8710522
 SUMMED SPIN DENSITY          -0.00000000
 TOTAL ATOMIC SPINS  :
  -0.0000000  -0.0000000  -0.0000000  -0.0000000  -0.0000000  -0.0000000
  -0.0000000  -0.0000000  -0.0000000  -0.0000000   0.0000000   0.0000000
   0.0000000   0.0000000   0.0000000   0.0000000   0.0000000   0.0000000
   0.0000000   0.0000000   0.0000000   0.0000000
 TTTTTTTTTTTTTTTTTTTTTTTTTTTTTT MOQGAD      TELAPSE       25.28 TCPU       19.94
 MMMMM MOQGAD      USED MEM(MB)     25.36 MAX MEM     25.79 TOT MEM       811.66
 TTTTTTTTTTTTTTTTTTTTTTTTTTTTTT SHELLXN     TELAPSE       28.03 TCPU       22.69
 MMMMM SHELLXN     USED MEM(MB)     25.52 MAX MEM     40.95 TOT MEM       816.60
 TTTTTTTTTTTTTTTTTTTTTTTTTTTTTT MONMO3      TELAPSE       28.06 TCPU       22.71
 MMMMM MONMO3      USED MEM(MB)     25.52 MAX MEM     25.52 TOT MEM       816.60
 NUMERICALLY INTEGRATED DENSITY     65.9999490039     65.9999490039
 TTTTTTTTTTTTTTTTTTTTTTTTTTTTTT NUMDFT      TELAPSE       28.43 TCPU       23.08
 MMMMM NUMDFT      USED MEM(MB)     25.52 MAX MEM     42.65 TOT MEM       816.60
 CYC   5 ETOT(AU) -8.372300178023E+02 DETOT -7.06E-04 tst  4.97E-06 PX  8.13E-03
 CYCLE  5 WAVE FUNCTION SAVED IN FORTRAN UNIT 79
 TTTTTTTTTTTTTTTTTTTTTTTTTTTTTT DIIS        TELAPSE       30.18 TCPU       23.54
 MMMMM DIIS        USED MEM(MB)     42.24 MAX MEM     52.13 TOT MEM      1263.66
 DIIS TEST: 0.77671E-04 AT SCF   CYCLE   5 - DIIS ACTIVE - HISTORY:     5 CYCLES
 TTTTTTTTTTTTTTTTTTTTTTTTTTTTTT FDIK        TELAPSE       30.52 TCPU       23.88
 MMMMM FDIK        USED MEM(MB)     32.51 MAX MEM     42.24 TOT MEM      1040.16

    ALPHA      ELECTRONS
 INSULATING STATE
 TOP OF VALENCE BANDS -    BAND     66; K    8; EIG -1.4807589E-01 AU
 TOP OF VALENCE BANDS -    BAND     66; K    1; EIG -1.5195460E-01 AU
 BOTTOM OF VIRTUAL BANDS - BAND     67; K    3; EIG -4.8038008E-02 AU
 INDIRECT ENERGY BAND GAP:   2.7222 eV
 BOTTOM OF VIRTUAL BANDS - BAND     67; K    1; EIG -3.5655859E-02 AU

    BETA       ELECTRONS
 INSULATING STATE
 TOP OF VALENCE BANDS -    BAND     66; K    8; EIG -1.4807589E-01 AU
 TOP OF VALENCE BANDS -    BAND     66; K    1; EIG -1.5195460E-01 AU
 BOTTOM OF VIRTUAL BANDS - BAND     67; K    3; EIG -4.8038008E-02 AU
 INDIRECT ENERGY BAND GAP:   2.7222 eV
 BOTTOM OF VIRTUAL BANDS - BAND     67; K    1; EIG -3.5655859E-02 AU
 TTTTTTTTTTTTTTTTTTTTTTTTTTTTTT PDIG        TELAPSE       30.57 TCPU       23.93
 MMMMM PDIG        USED MEM(MB)     25.48 MAX MEM     32.85 TOT MEM       815.39
 CHARGE NORMALIZATION FACTOR   1.00000000
 TOTAL ATOMIC CHARGES:
   5.8481309   5.8481309   6.2315251   6.2315251   6.2315251   6.2315251
   6.2315251   6.2315251   6.2315251   6.2315251   5.8709614   5.8709614
   5.8709614   5.8709614   5.8709614   5.8709614   5.8709614   5.8709614
   5.8709614   5.8709614   5.8709614   5.8709614
 SUMMED SPIN DENSITY           0.00000000
 TOTAL ATOMIC SPINS  :
  -0.0000000  -0.0000000   0.0000000   0.0000000   0.0000000   0.0000000
   0.0000000   0.0000000   0.0000000   0.0000000  -0.0000000  -0.0000000
  -0.0000000  -0.0000000  -0.0000000  -0.0000000  -0.0000000  -0.0000000
  -0.0000000  -0.0000000  -0.0000000  -0.0000000
 TTTTTTTTTTTTTTTTTTTTTTTTTTTTTT MOQGAD      TELAPSE       30.58 TCPU       23.94
 MMMMM MOQGAD      USED MEM(MB)     25.52 MAX MEM     25.94 TOT MEM       816.60
 TTTTTTTTTTTTTTTTTTTTTTTTTTTTTT SHELLXN     TELAPSE       33.33 TCPU       26.68
 MMMMM SHELLXN     USED MEM(MB)     25.67 MAX MEM     41.10 TOT MEM       821.54
 TTTTTTTTTTTTTTTTTTTTTTTTTTTTTT MONMO3      TELAPSE       33.35 TCPU       26.70
 MMMMM MONMO3      USED MEM(MB)     25.67 MAX MEM     25.67 TOT MEM       821.54
 NUMERICALLY INTEGRATED DENSITY     65.9999490202     65.9999490202
 TTTTTTTTTTTTTTTTTTTTTTTTTTTTTT NUMDFT      TELAPSE       33.73 TCPU       27.08
 MMMMM NUMDFT      USED MEM(MB)     25.67 MAX MEM     42.80 TOT MEM       821.54
 CYC   6 ETOT(AU) -8.372300273464E+02 DETOT -9.54E-06 tst  1.55E-08 PX  4.00E-04
 CYCLE  6 WAVE FUNCTION SAVED IN FORTRAN UNIT 79
 TTTTTTTTTTTTTTTTTTTTTTTTTTTTTT DIIS        TELAPSE       35.26 TCPU       28.41
 MMMMM DIIS        USED MEM(MB)     42.39 MAX MEM     52.28 TOT MEM      1268.60
 DIIS TEST: 0.22241E-05 AT SCF   CYCLE   6 - DIIS ACTIVE - HISTORY:     6 CYCLES
 TTTTTTTTTTTTTTTTTTTTTTTTTTTTTT FDIK        TELAPSE       35.58 TCPU       28.73
 MMMMM FDIK        USED MEM(MB)     32.66 MAX MEM     42.39 TOT MEM      1045.10

    ALPHA      ELECTRONS
 INSULATING STATE
 TOP OF VALENCE BANDS -    BAND     66; K    8; EIG -1.4808233E-01 AU
 TOP OF VALENCE BANDS -    BAND     66; K    1; EIG -1.5196083E-01 AU
 BOTTOM OF VIRTUAL BANDS - BAND     67; K    3; EIG -4.8034633E-02 AU
 INDIRECT ENERGY BAND GAP:   2.7224 eV
 BOTTOM OF VIRTUAL BANDS - BAND     67; K    1; EIG -3.5654778E-02 AU

    BETA       ELECTRONS
 INSULATING STATE
 TOP OF VALENCE BANDS -    BAND     66; K    8; EIG -1.4808233E-01 AU
 TOP OF VALENCE BANDS -    BAND     66; K    1; EIG -1.5196083E-01 AU
 BOTTOM OF VIRTUAL BANDS - BAND     67; K    3; EIG -4.8034633E-02 AU
 INDIRECT ENERGY BAND GAP:   2.7224 eV
 BOTTOM OF VIRTUAL BANDS - BAND     67; K    1; EIG -3.5654778E-02 AU
 TTTTTTTTTTTTTTTTTTTTTTTTTTTTTT PDIG        TELAPSE       35.63 TCPU       28.78
 MMMMM PDIG        USED MEM(MB)     25.64 MAX MEM     33.01 TOT MEM       820.33
 CHARGE NORMALIZATION FACTOR   1.00000000
 TOTAL ATOMIC CHARGES:
   5.8483508   5.8483508   6.2312478   6.2312478   6.2312478   6.2312478
   6.2312478   6.2312478   6.2312478   6.2312478   5.8711097   5.8711097
   5.8711097   5.8711097   5.8711097   5.8711097   5.8711097   5.8711097
   5.8711097   5.8711097   5.8711097   5.8711097
 SUMMED SPIN DENSITY          -0.00000000
 TOTAL ATOMIC SPINS  :
  -0.0000000  -0.0000000   0.0000000   0.0000000   0.0000000   0.0000000
   0.0000000   0.0000000   0.0000000   0.0000000  -0.0000000  -0.0000000
  -0.0000000  -0.0000000  -0.0000000  -0.0000000  -0.0000000  -0.0000000
  -0.0000000  -0.0000000  -0.0000000  -0.0000000
 TTTTTTTTTTTTTTTTTTTTTTTTTTTTTT MOQGAD      TELAPSE       35.64 TCPU       28.79
 MMMMM MOQGAD      USED MEM(MB)     25.67 MAX MEM     26.10 TOT MEM       821.54
 TTTTTTTTTTTTTTTTTTTTTTTTTTTTTT SHELLXN     TELAPSE       38.39 TCPU       31.53
 MMMMM SHELLXN     USED MEM(MB)     25.83 MAX MEM     41.26 TOT MEM       826.48
 TTTTTTTTTTTTTTTTTTTTTTTTTTTTTT MONMO3      TELAPSE       38.41 TCPU       31.56
 MMMMM MONMO3      USED MEM(MB)     25.83 MAX MEM     25.83 TOT MEM       826.48
 NUMERICALLY INTEGRATED DENSITY     65.9999490190     65.9999490190
 TTTTTTTTTTTTTTTTTTTTTTTTTTTTTT NUMDFT      TELAPSE       38.81 TCPU       31.95
 MMMMM NUMDFT      USED MEM(MB)     25.83 MAX MEM     42.96 TOT MEM       826.48
 CYC   7 ETOT(AU) -8.372300273680E+02 DETOT -2.16E-08 tst  4.78E-10 PX  5.83E-05
 CYCLE  7 WAVE FUNCTION SAVED IN FORTRAN UNIT 79
 TTTTTTTTTTTTTTTTTTTTTTTTTTTTTT DIIS        TELAPSE       40.29 TCPU       32.09
 MMMMM DIIS        USED MEM(MB)     42.54 MAX MEM     52.44 TOT MEM      1273.54
 DIIS TEST: 0.11952E-05 AT SCF   CYCLE   7 - DIIS ACTIVE - HISTORY:     7 CYCLES
 TTTTTTTTTTTTTTTTTTTTTTTTTTTTTT FDIK        TELAPSE       40.61 TCPU       32.41
 MMMMM FDIK        USED MEM(MB)     32.81 MAX MEM     42.54 TOT MEM      1050.04

    ALPHA      ELECTRONS
 INSULATING STATE
 TOP OF VALENCE BANDS -    BAND     66; K    8; EIG -1.4807919E-01 AU
 TOP OF VALENCE BANDS -    BAND     66; K    1; EIG -1.5195779E-01 AU
 BOTTOM OF VIRTUAL BANDS - BAND     67; K    3; EIG -4.8033225E-02 AU
 INDIRECT ENERGY BAND GAP:   2.7224 eV
 BOTTOM OF VIRTUAL BANDS - BAND     67; K    1; EIG -3.5651308E-02 AU

    BETA       ELECTRONS
 INSULATING STATE
 TOP OF VALENCE BANDS -    BAND     66; K    8; EIG -1.4807919E-01 AU
 TOP OF VALENCE BANDS -    BAND     66; K    1; EIG -1.5195779E-01 AU
 BOTTOM OF VIRTUAL BANDS - BAND     67; K    3; EIG -4.8033225E-02 AU
 INDIRECT ENERGY BAND GAP:   2.7224 eV
 BOTTOM OF VIRTUAL BANDS - BAND     67; K    1; EIG -3.5651308E-02 AU
 TTTTTTTTTTTTTTTTTTTTTTTTTTTTTT PDIG        TELAPSE       40.66 TCPU       32.47
 MMMMM PDIG        USED MEM(MB)     25.79 MAX MEM     33.16 TOT MEM       825.27
 CHARGE NORMALIZATION FACTOR   1.00000000
 TOTAL ATOMIC CHARGES:
   5.8482362   5.8482362   6.2313755   6.2313755   6.2313755   6.2313755
   6.2313755   6.2313755   6.2313755   6.2313755   5.8710436   5.8710436
   5.8710436   5.8710436   5.8710436   5.8710436   5.8710436   5.8710436
   5.8710436   5.8710436   5.8710436   5.8710436
 SUMMED SPIN DENSITY          -0.00000000
 TOTAL ATOMIC SPINS  :
  -0.0000000  -0.0000000  -0.0000000  -0.0000000  -0.0000000  -0.0000000
  -0.0000000  -0.0000000  -0.0000000  -0.0000000   0.0000000   0.0000000
   0.0000000   0.0000000   0.0000000   0.0000000   0.0000000   0.0000000
   0.0000000   0.0000000   0.0000000   0.0000000
 TTTTTTTTTTTTTTTTTTTTTTTTTTTTTT MOQGAD      TELAPSE       40.67 TCPU       32.47
 MMMMM MOQGAD      USED MEM(MB)     25.83 MAX MEM     26.25 TOT MEM       826.48
 TTTTTTTTTTTTTTTTTTTTTTTTTTTTTT SHELLXN     TELAPSE       43.42 TCPU       35.22
 MMMMM SHELLXN     USED MEM(MB)     25.98 MAX MEM     41.41 TOT MEM       831.42
 +++ ENERGIES IN A.U. +++
 ::: EXT EL-POLE                                  -3.0389328877939E+03
 ::: EXT EL-SPHEROPOLE                             2.9328528992971E+01
 ::: BIELET ZONE E-E                               3.2362961759256E+03
 ::: TOTAL E-E                                     2.2669181712462E+02
 ::: TOTAL E-N + N-E                              -1.5484226339319E+03
 ::: TOTAL N-N                                    -2.3043683872229E+02
 ::: KINETIC ENERGY                                8.3376357450263E+02
 ::: PSEUDO TOTAL   ENERGY                        -7.1840408102695E+02
 ::: VIRIAL COEFFICIENT                            1.0743215419190E+00
 TTTTTTTTTTTTTTTTTTTTTTTTTTTTTT MONMO3      TELAPSE       43.44 TCPU       35.24
 MMMMM MONMO3      USED MEM(MB)     25.98 MAX MEM     25.98 TOT MEM       831.42
 NUMERICALLY INTEGRATED DENSITY     65.9999490203     65.9999490203
 EXCHANGE ENERGY: -0.114064351434E+03  CORRELATION ENERGY: -0.476159499349E+01
 TTTTTTTTTTTTTTTTTTTTTTTTTTTTTT NUMDFT      TELAPSE       43.81 TCPU       35.61
 MMMMM NUMDFT      USED MEM(MB)     25.98 MAX MEM     43.11 TOT MEM       831.41
 CYC   8 ETOT(AU) -8.372300274548E+02 DETOT -8.68E-08 tst  1.89E-10 PX  5.83E-05

 == SCF ENDED - CONVERGENCE ON ENERGY      E(AU) -8.3723002745483E+02 CYCLES   8


 ENERGY EXPRESSION=HARTREE+FOCK EXCH*0.00000+(PBE        EXCH)*1.00000+PBE        CORR


 TOTAL ENERGY(DFT)(AU)(  8) -8.3723002745483E+02 DE-8.7E-08 tester 1.9E-10
 TTTTTTTTTTTTTTTTTTTTTTTTTTTTTT EDFT        TELAPSE       43.82 TCPU       35.62
 MMMMM EDFT        USED MEM(MB)     15.77 MAX MEM     25.98 TOT MEM       504.56

 *******************************************************************************
 *                             FORCE CALCULATION                               *
 *******************************************************************************

 TTTTTTTTTTTTTTTTTTTTTTTTTTTTTT NUMDFG      TELAPSE       46.33 TCPU       38.12
 MMMMM NUMDFG      USED MEM(MB)      9.36 MAX MEM     40.50 TOT MEM       299.42
 INFORMATION **** EXCPOG **** EXCH. BIPO BUFFER LENGTH (WORDS) =           0
 INFORMATION **** GENPOG **** BIPO BUFFER LENGTH (WORDS) =     4047000
 TTTTTTTTTTTTTTTTTTTTTTTTTTTTTT SHELXG      TELAPSE       62.11 TCPU       53.90
 MMMMM SHELXG      USED MEM(MB)      9.36 MAX MEM     72.26 TOT MEM       299.42


 D3 DISPERSION ENERGY (AU)       -1.2288067738568E-01
 TOTAL ENERGY + DISP (AU)        -8.3735290813222E+02

 CARTESIAN FORCES IN HARTREE/BOHR (ANALYTICAL)
   ATOM                     X                   Y                   Z
   1   6            -3.330669073875E-16  6.106226635438E-16  1.591319668629E-15
   2   6            -9.436895709314E-16  1.457167719821E-15 -2.590520390792E-16
   3   6            -1.074898415493E-03 -1.074898415491E-03 -1.074898415490E-03
   4   6             1.074898415496E-03  1.074898415494E-03 -1.074898415497E-03
   5   6            -1.074898415496E-03  1.074898415492E-03  1.074898415493E-03
   6   6             1.074898415495E-03 -1.074898415496E-03  1.074898415494E-03
   7   6             1.074898415496E-03  1.074898415492E-03  1.074898415492E-03
   8   6            -1.074898415495E-03 -1.074898415496E-03  1.074898415493E-03
   9   6             1.074898415491E-03 -1.074898415492E-03 -1.074898415493E-03
  10   6            -1.074898415495E-03  1.074898415491E-03 -1.074898415494E-03
  11   6            -9.992007221626E-16 -4.540103082196E-03 -9.380827647804E-03
  12   6            -1.221245327088E-15  4.540103082195E-03 -9.380827647804E-03
  13   6             9.436895709314E-16  4.540103082196E-03  9.380827647802E-03
  14   6             1.054711873394E-15 -4.540103082194E-03  9.380827647804E-03
  15   6            -9.380827647803E-03  1.110223024625E-15 -4.540103082196E-03
  16   6            -4.540103082197E-03 -9.380827647804E-03  3.762382560335E-16
  17   6             9.380827647806E-03  2.692290834716E-15 -4.540103082194E-03
  18   6             4.540103082194E-03 -9.380827647806E-03  4.791641277197E-16
  19   6            -9.380827647807E-03 -1.258252761242E-15  4.540103082193E-03
  20   6             4.540103082197E-03  9.380827647802E-03  6.992003972869E-16
  21   6             9.380827647804E-03 -3.238150488490E-16  4.540103082198E-03
  22   6            -4.540103082194E-03  9.380827647806E-03 -3.608224830032E-16

 RESULTANT FORCE    -1.793704074160E-15 -2.301978052621E-15  8.248610128270E-16

 ATOMIC PART

 SYMMETRY ALLOWED FORCES (ANALYTICAL) (DIRECTION, FORCE)

    1 -5.2659053E-03    2 -3.4099177E-02    3 -1.1857305E-02

 CELL PART

 GRADIENT WITH RESPECT TO THE CELL PARAMETER IN HARTREE/BOHR
ORDER: -D/DA1X, -D/DA1Y, -D/DA1Z
       -D/DA2X, -D/DA2Y, -D/DA2Z
       -D/DA3X, -D/DA3Y, -D/DA3Z
 -0.318643517219E-02  0.318643517219E-02  0.318643517220E-02
  0.318643517220E-02 -0.318643517219E-02  0.318643517220E-02
  0.318643517220E-02  0.318643517219E-02 -0.318643517219E-02

STRESS TENSOR, IN HARTREE/BOHR^3:
ORDER: 11 12 13
       21 22 23
       31 32 33
 -0.470296219572E-04 -0.196602320632E-16 -0.152899830760E-16
 -0.371415495086E-16 -0.470296219571E-04 -0.109231660828E-16
 -0.262187993026E-16 -0.458842204005E-16 -0.470296219572E-04

PRESSURE FROM THE STRESS TENSOR,
IN HARTREE/BOHR^3:  0.47030E-04
PRESSURE IN GIGAPASCAL:  0.1384E+01
CONVERSION FACTOR: 1 HARTREE/BOHR^3= 29421 GIGAPASCAL
WHEN USING VALUES FOR BOHR RADIUS AND HARTREE
FROM IUPAC WEBSITE, APRIL 2009
ENTHALPY: -8.3730045132151E+02

 SYMMETRY ALLOWED FORCES (ANALYTICAL) (DIRECTION, FORCE)

    1  7.7506442E-03
 TTTTTTTTTTTTTTTTTTTTTTTTTTTTTT TOTGRA      TELAPSE       62.93 TCPU       54.72
 MMMMM TOTGRA      USED MEM(MB)      9.33 MAX MEM     19.96 TOT MEM       298.61
 INFORMATION **** optc0001 **** GEOMETRY OUTPUT FILE
 CLASSICAL MODEL (SCHLEGEL) USED AS INITIAL HESSIAN MATRIX
 REFERENCE GEOMETRY DEFINED

 MAX GRADIENT      0.034099  THRESHOLD              0.000450 CONVERGED NO
 RMS GRADIENT      0.018649  THRESHOLD              0.000300 CONVERGED NO

 GRADIENT NORM     0.037298  GRADIENT THRESHOLD     0.500000

 EIGENVALUES OF THE ESTIMATED HESSIAN
  0.9432E-01  0.3070      0.5930       1.153    

 INITIAL TRUST RADIUS    0.5000000000E+00

 PREDICTED ENERGY CHANGE    -0.311E-02

 INITIAL DISPLACEMENTS
 -0.049345 -0.155408 -0.103645 -0.072966
 TTTTTTTTTTTTTTTTTTTTTTTTTTTTTT OPTI        TELAPSE       62.95 TCPU       54.73
 MMMMM OPTI        USED MEM(MB)      7.91 MAX MEM      9.33 TOT MEM       253.03

 OPTOPTOPTOPTOPTOPTOPTOPTOPTOPTOPTOPTOPTOPTOPTOPTOPTOPTOPTOPTOPTOPTOPTOPTOPTOPT

 - INFORMATION ON SCF MOVED TO SCFOUT.LOG
 GEOMETRY OPTIMIZATION INFORMATION STORED IN OPTINFO.DAT

 OPTOPTOPTOPTOPTOPTOPTOPTOPTOPTOPTOPTOPTOPTOPTOPTOPTOPTOPTOPTOPTOPTOPTOPTOPTOPT
 *******************************************************************************
 COORDINATE AND CELL OPTIMIZATION - POINT    2
 *******************************************************************************
 LATTICE PARAMETERS (ANGSTROMS AND DEGREES) - BOHR = 0.5291772083 ANGSTROM
 PRIMITIVE CELL - CENTRING CODE 5/0 VOLUME=   163.509607 - DENSITY  2.681 g/cm^3
         A              B              C           ALPHA      BETA       GAMMA 
     6.13789457     6.13789457     6.13789457    60.000000  60.000000  60.000000
 *******************************************************************************
 ATOMS IN THE ASYMMETRIC UNIT    3 - ATOMS IN THE UNIT CELL:   22
     ATOM                 X/A                 Y/B                 Z/C    
 *******************************************************************************
      1 T   6 C     2.500000000000E-01  2.500000000000E-01  2.500000000000E-01
      2 F   6 C    -2.500000000000E-01 -2.500000000000E-01 -2.500000000000E-01
      3 T   6 C    -1.483318481011E-01 -1.483318481011E-01 -1.483318481011E-01
      4 F   6 C    -1.483318481011E-01 -1.483318481011E-01  4.449955443033E-01
      5 F   6 C     4.449955443033E-01 -1.483318481011E-01 -1.483318481011E-01
      6 F   6 C    -1.483318481011E-01  4.449955443033E-01 -1.483318481011E-01
      7 F   6 C     1.483318481011E-01  1.483318481011E-01  1.483318481011E-01
      8 F   6 C     1.483318481011E-01  1.483318481011E-01 -4.449955443033E-01
      9 F   6 C    -4.449955443033E-01  1.483318481011E-01  1.483318481011E-01
     10 F   6 C     1.483318481011E-01 -4.449955443033E-01  1.483318481011E-01
     11 T   6 C    -2.954839004121E-01 -1.393002531302E-01  1.393002531302E-01
     12 F   6 C    -1.393002531302E-01 -2.954839004121E-01  2.954839004121E-01
     13 F   6 C     2.954839004121E-01  1.393002531302E-01 -1.393002531302E-01
     14 F   6 C     1.393002531302E-01  2.954839004121E-01 -2.954839004121E-01
     15 F   6 C     1.393002531302E-01 -2.954839004121E-01 -1.393002531302E-01
     16 F   6 C    -1.393002531302E-01  1.393002531302E-01 -2.954839004121E-01
     17 F   6 C    -2.954839004121E-01  1.393002531302E-01  2.954839004121E-01
     18 F   6 C    -2.954839004121E-01  2.954839004121E-01 -1.393002531302E-01
     19 F   6 C     2.954839004121E-01 -1.393002531302E-01 -2.954839004121E-01
     20 F   6 C     1.393002531302E-01 -1.393002531302E-01  2.954839004121E-01
     21 F   6 C    -1.393002531302E-01  2.954839004121E-01  1.393002531302E-01
     22 F   6 C     2.954839004121E-01 -2.954839004121E-01  1.393002531302E-01

 TRANSFORMATION MATRIX PRIMITIVE-CRYSTALLOGRAPHIC CELL
 -1.0000  1.0000  1.0000  1.0000 -1.0000  1.0000  1.0000  1.0000 -1.0000

 *******************************************************************************
 CRYSTALLOGRAPHIC CELL (VOLUME=        654.03842787)
         A              B              C           ALPHA      BETA       GAMMA 
     8.68029374     8.68029374     8.68029374    90.000000  90.000000  90.000000

 COORDINATES IN THE CRYSTALLOGRAPHIC CELL
     ATOM                 X/A                 Y/B                 Z/C    
 *******************************************************************************
      1 T   6 C     2.500000000000E-01 -2.500000000000E-01 -2.500000000000E-01
      2 F   6 C    -2.500000000000E-01 -2.500000000000E-01 -2.500000000000E-01
      3 T   6 C    -1.483318481011E-01 -1.483318481011E-01 -1.483318481011E-01
      4 F   6 C     1.483318481011E-01  1.483318481011E-01 -1.483318481011E-01
      5 F   6 C    -1.483318481011E-01  1.483318481011E-01  1.483318481011E-01
      6 F   6 C     1.483318481011E-01 -1.483318481011E-01  1.483318481011E-01
      7 F   6 C     1.483318481011E-01  1.483318481011E-01  1.483318481011E-01
      8 F   6 C    -1.483318481011E-01 -1.483318481011E-01  1.483318481011E-01
      9 F   6 C     1.483318481011E-01 -1.483318481011E-01 -1.483318481011E-01
     10 F   6 C    -1.483318481011E-01  1.483318481011E-01 -1.483318481011E-01
     11 T   6 C     2.416758032214E-20 -7.809182364094E-02 -2.173920767712E-01
     12 F   6 C     1.277714733118E-17  7.809182364094E-02 -2.173920767712E-01
     13 F   6 C    -5.883482508910E-20  7.809182364094E-02  2.173920767712E-01
     14 F   6 C    -1.281181457595E-17 -7.809182364094E-02  2.173920767712E-01
     15 F   6 C    -2.173920767712E-01 -4.150120270562E-20 -7.809182364094E-02
     16 F   6 C    -7.809182364094E-02 -2.173920767712E-01  5.016801389736E-20
     17 F   6 C     2.173920767712E-01  1.279448095357E-17 -7.809182364094E-02
     18 F   6 C     7.809182364094E-02 -2.173920767712E-01  1.280314776476E-17
     19 F   6 C    -2.173920767712E-01 -1.279448095357E-17  7.809182364094E-02
     20 F   6 C     7.809182364094E-02  2.173920767712E-01 -3.283439151388E-20
     21 F   6 C     2.173920767712E-01  4.150120270562E-20  7.809182364094E-02
     22 F   6 C    -7.809182364094E-02  2.173920767712E-01 -1.278581414237E-17

 T = ATOM BELONGING TO THE ASYMMETRIC UNIT

 TOTAL ENERGY(DFT)(AU)(  7) -8.3735536354717E+02     DE (AU)   -2.455E-03

 UPDATED TRUST RADIUS     0.100E+01

 SYMMETRY ALLOWED FORCES  (COORDINATE, FORCE)

    1  1.0495689E-02    2  1.4402112E-03    3  1.0650836E-04    4  1.2893912E-03

 GRADIENT NORM     0.010673  GRADIENT THRESHOLD     0.500000

 EIGENVALUES OF THE ESTIMATED HESSIAN
  0.1082      0.2929      0.6221       1.141    

 PREDICTED ENERGY CHANGE    -0.133E-03

 MAX GRADIENT      0.010496  THRESHOLD              0.000450 CONVERGED NO
 RMS GRADIENT      0.005336  THRESHOLD              0.000300 CONVERGED NO
 MAX DISPLAC.      0.022571  THRESHOLD              0.001800 CONVERGED NO
 RMS DISPLAC.      0.017644  THRESHOLD              0.001200 CONVERGED NO
 TTTTTTTTTTTTTTTTTTTTTTTTTTTTTT OPTI        TELAPSE      117.88 TCPU      105.91
 MMMMM OPTI        USED MEM(MB)      9.02 MAX MEM     10.45 TOT MEM       288.60
 *******************************************************************************
 COORDINATE AND CELL OPTIMIZATION - POINT    3
 *******************************************************************************
 LATTICE PARAMETERS (ANGSTROMS AND DEGREES) - BOHR = 0.5291772083 ANGSTROM
 PRIMITIVE CELL - CENTRING CODE 5/0 VOLUME=   164.055504 - DENSITY  2.672 g/cm^3
         A              B              C           ALPHA      BETA       GAMMA 
     6.14471768     6.14471768     6.14471768    60.000000  60.000000  60.000000
 *******************************************************************************
 ATOMS IN THE ASYMMETRIC UNIT    3 - ATOMS IN THE UNIT CELL:   22
     ATOM                 X/A                 Y/B                 Z/C    
 *******************************************************************************
      1 T   6 C     2.500000000000E-01  2.500000000000E-01  2.500000000000E-01
      2 F   6 C    -2.500000000000E-01 -2.500000000000E-01 -2.500000000000E-01
      3 T   6 C    -1.480802320308E-01 -1.480802320308E-01 -1.480802320308E-01
      4 F   6 C    -1.480802320308E-01 -1.480802320308E-01  4.442406960923E-01
      5 F   6 C     4.442406960923E-01 -1.480802320308E-01 -1.480802320308E-01
      6 F   6 C    -1.480802320308E-01  4.442406960923E-01 -1.480802320308E-01
      7 F   6 C     1.480802320308E-01  1.480802320308E-01  1.480802320308E-01
      8 F   6 C     1.480802320308E-01  1.480802320308E-01 -4.442406960923E-01
      9 F   6 C    -4.442406960923E-01  1.480802320308E-01  1.480802320308E-01
     10 F   6 C     1.480802320308E-01 -4.442406960923E-01  1.480802320308E-01
     11 T   6 C    -2.950735627670E-01 -1.391245187442E-01  1.391245187442E-01
     12 F   6 C    -1.391245187442E-01 -2.950735627670E-01  2.950735627670E-01
     13 F   6 C     2.950735627670E-01  1.391245187442E-01 -1.391245187442E-01
     14 F   6 C     1.391245187442E-01  2.950735627670E-01 -2.950735627670E-01
     15 F   6 C     1.391245187442E-01 -2.950735627670E-01 -1.391245187442E-01
     16 F   6 C    -1.391245187442E-01  1.391245187442E-01 -2.950735627670E-01
     17 F   6 C    -2.950735627670E-01  1.391245187442E-01  2.950735627670E-01
     18 F   6 C    -2.950735627670E-01  2.950735627670E-01 -1.391245187442E-01
     19 F   6 C     2.950735627670E-01 -1.391245187442E-01 -2.950735627670E-01
     20 F   6 C     1.391245187442E-01 -1.391245187442E-01  2.950735627670E-01
     21 F   6 C    -1.391245187442E-01  2.950735627670E-01  1.391245187442E-01
     22 F   6 C     2.950735627670E-01 -2.950735627670E-01  1.391245187442E-01

 TRANSFORMATION MATRIX PRIMITIVE-CRYSTALLOGRAPHIC CELL
 -1.0000  1.0000  1.0000  1.0000 -1.0000  1.0000  1.0000  1.0000 -1.0000

 *******************************************************************************
 CRYSTALLOGRAPHIC CELL (VOLUME=        656.22201554)
         A              B              C           ALPHA      BETA       GAMMA 
     8.68994309     8.68994309     8.68994309    90.000000  90.000000  90.000000

 COORDINATES IN THE CRYSTALLOGRAPHIC CELL
     ATOM                 X/A                 Y/B                 Z/C    
 *******************************************************************************
      1 T   6 C     2.500000000000E-01 -2.500000000000E-01 -2.500000000000E-01
      2 F   6 C    -2.500000000000E-01 -2.500000000000E-01 -2.500000000000E-01
      3 T   6 C    -1.480802320308E-01 -1.480802320308E-01 -1.480802320308E-01
      4 F   6 C     1.480802320308E-01  1.480802320308E-01 -1.480802320308E-01
      5 F   6 C    -1.480802320308E-01  1.480802320308E-01  1.480802320308E-01
      6 F   6 C     1.480802320308E-01 -1.480802320308E-01  1.480802320308E-01
      7 F   6 C     1.480802320308E-01  1.480802320308E-01  1.480802320308E-01
      8 F   6 C    -1.480802320308E-01 -1.480802320308E-01  1.480802320308E-01
      9 F   6 C     1.480802320308E-01 -1.480802320308E-01 -1.480802320308E-01
     10 F   6 C    -1.480802320308E-01  1.480802320308E-01 -1.480802320308E-01
     11 T   6 C     2.535272175897E-20 -7.797452201141E-02 -2.170990407556E-01
     12 F   6 C     1.277833247262E-17  7.797452201141E-02 -2.170990407556E-01
     13 F   6 C    -5.764968365227E-20  7.797452201141E-02  2.170990407556E-01
     14 F   6 C    -1.281062943451E-17 -7.797452201141E-02  2.170990407556E-01
     15 F   6 C    -2.170990407556E-01 -4.150120270562E-20 -7.797452201141E-02
     16 F   6 C    -7.797452201141E-02 -2.170990407556E-01  4.957544317894E-20
     17 F   6 C     2.170990407556E-01  1.279448095357E-17 -7.797452201141E-02
     18 F   6 C     7.797452201141E-02 -2.170990407556E-01  1.280255519404E-17
     19 F   6 C    -2.170990407556E-01 -1.279448095357E-17  7.797452201141E-02
     20 F   6 C     7.797452201141E-02  2.170990407556E-01 -3.342696223229E-20
     21 F   6 C     2.170990407556E-01  4.150120270562E-20  7.797452201141E-02
     22 F   6 C    -7.797452201141E-02  2.170990407556E-01 -1.278640671309E-17

 T = ATOM BELONGING TO THE ASYMMETRIC UNIT

 TOTAL ENERGY(DFT)(AU)(  7) -8.3735552014188E+02     DE (AU)   -1.566E-04

 UPDATED TRUST RADIUS     0.200E+01

 SYMMETRY ALLOWED FORCES  (COORDINATE, FORCE)

    1  1.1030696E-03    2 -4.7668571E-04    3  8.3721086E-04    4 -1.0376078E-03

 GRADIENT NORM     0.001795  GRADIENT THRESHOLD     0.500000

 EIGENVALUES OF THE ESTIMATED HESSIAN
  0.1235      0.2944      0.5554       1.126    

 PREDICTED ENERGY CHANGE    -0.404E-05

 MAX GRADIENT      0.001103  THRESHOLD              0.000450 CONVERGED NO
 RMS GRADIENT      0.000897  THRESHOLD              0.000300 CONVERGED NO
 MAX DISPLAC.      0.005529  THRESHOLD              0.001800 CONVERGED NO
 RMS DISPLAC.      0.002914  THRESHOLD              0.001200 CONVERGED NO
 TTTTTTTTTTTTTTTTTTTTTTTTTTTTTT OPTI        TELAPSE      174.28 TCPU      156.21
 MMMMM OPTI        USED MEM(MB)     10.13 MAX MEM     11.56 TOT MEM       324.17
 *******************************************************************************
 COORDINATE AND CELL OPTIMIZATION - POINT    4
 *******************************************************************************
 LATTICE PARAMETERS (ANGSTROMS AND DEGREES) - BOHR = 0.5291772083 ANGSTROM
 PRIMITIVE CELL - CENTRING CODE 5/0 VOLUME=   163.921510 - DENSITY  2.674 g/cm^3
         A              B              C           ALPHA      BETA       GAMMA 
     6.14304431     6.14304431     6.14304431    60.000000  60.000000  60.000000
 *******************************************************************************
 ATOMS IN THE ASYMMETRIC UNIT    3 - ATOMS IN THE UNIT CELL:   22
     ATOM                 X/A                 Y/B                 Z/C    
 *******************************************************************************
      1 T   6 C     2.500000000000E-01  2.500000000000E-01  2.500000000000E-01
      2 F   6 C    -2.500000000000E-01 -2.500000000000E-01 -2.500000000000E-01
      3 T   6 C    -1.480637477821E-01 -1.480637477821E-01 -1.480637477821E-01
      4 F   6 C    -1.480637477821E-01 -1.480637477821E-01  4.441912433463E-01
      5 F   6 C     4.441912433463E-01 -1.480637477821E-01 -1.480637477821E-01
      6 F   6 C    -1.480637477821E-01  4.441912433463E-01 -1.480637477821E-01
      7 F   6 C     1.480637477821E-01  1.480637477821E-01  1.480637477821E-01
      8 F   6 C     1.480637477821E-01  1.480637477821E-01 -4.441912433463E-01
      9 F   6 C    -4.441912433463E-01  1.480637477821E-01  1.480637477821E-01
     10 F   6 C     1.480637477821E-01 -4.441912433463E-01  1.480637477821E-01
     11 T   6 C    -2.951040817114E-01 -1.391159928048E-01  1.391159928048E-01
     12 F   6 C    -1.391159928048E-01 -2.951040817114E-01  2.951040817114E-01
     13 F   6 C     2.951040817114E-01  1.391159928048E-01 -1.391159928048E-01
     14 F   6 C     1.391159928048E-01  2.951040817114E-01 -2.951040817114E-01
     15 F   6 C     1.391159928048E-01 -2.951040817114E-01 -1.391159928048E-01
     16 F   6 C    -1.391159928048E-01  1.391159928048E-01 -2.951040817114E-01
     17 F   6 C    -2.951040817114E-01  1.391159928048E-01  2.951040817114E-01
     18 F   6 C    -2.951040817114E-01  2.951040817114E-01 -1.391159928048E-01
     19 F   6 C     2.951040817114E-01 -1.391159928048E-01 -2.951040817114E-01
     20 F   6 C     1.391159928048E-01 -1.391159928048E-01  2.951040817114E-01
     21 F   6 C    -1.391159928048E-01  2.951040817114E-01  1.391159928048E-01
     22 F   6 C     2.951040817114E-01 -2.951040817114E-01  1.391159928048E-01

 TRANSFORMATION MATRIX PRIMITIVE-CRYSTALLOGRAPHIC CELL
 -1.0000  1.0000  1.0000  1.0000 -1.0000  1.0000  1.0000  1.0000 -1.0000

 *******************************************************************************
 CRYSTALLOGRAPHIC CELL (VOLUME=        655.68603843)
         A              B              C           ALPHA      BETA       GAMMA 
     8.68757657     8.68757657     8.68757657    90.000000  90.000000  90.000000

 COORDINATES IN THE CRYSTALLOGRAPHIC CELL
     ATOM                 X/A                 Y/B                 Z/C    
 *******************************************************************************
      1 T   6 C     2.500000000000E-01 -2.500000000000E-01 -2.500000000000E-01
      2 F   6 C    -2.500000000000E-01 -2.500000000000E-01 -2.500000000000E-01
      3 T   6 C    -1.480637477821E-01 -1.480637477821E-01 -1.480637477821E-01
      4 F   6 C     1.480637477821E-01  1.480637477821E-01 -1.480637477821E-01
      5 F   6 C    -1.480637477821E-01  1.480637477821E-01  1.480637477821E-01
      6 F   6 C     1.480637477821E-01 -1.480637477821E-01  1.480637477821E-01
      7 F   6 C     1.480637477821E-01  1.480637477821E-01  1.480637477821E-01
      8 F   6 C    -1.480637477821E-01 -1.480637477821E-01  1.480637477821E-01
      9 F   6 C     1.480637477821E-01 -1.480637477821E-01 -1.480637477821E-01
     10 F   6 C    -1.480637477821E-01  1.480637477821E-01 -1.480637477821E-01
     11 T   6 C     2.541022014748E-20 -7.799404445331E-02 -2.171100372581E-01
     12 F   6 C     1.277838997101E-17  7.799404445331E-02 -2.171100372581E-01
     13 F   6 C    -5.759218526376E-20  7.799404445331E-02  2.171100372581E-01
     14 F   6 C    -1.281057193612E-17 -7.799404445331E-02  2.171100372581E-01
     15 F   6 C    -2.171100372581E-01 -4.150120270562E-20 -7.799404445331E-02
     16 F   6 C    -7.799404445331E-02 -2.171100372581E-01  4.954669398469E-20
     17 F   6 C     2.171100372581E-01  1.279448095357E-17 -7.799404445331E-02
     18 F   6 C     7.799404445331E-02 -2.171100372581E-01  1.280252644485E-17
     19 F   6 C    -2.171100372581E-01 -1.279448095357E-17  7.799404445331E-02
     20 F   6 C     7.799404445331E-02  2.171100372581E-01 -3.345571142655E-20
     21 F   6 C     2.171100372581E-01  4.150120270562E-20  7.799404445331E-02
     22 F   6 C    -7.799404445331E-02  2.171100372581E-01 -1.278643546229E-17

 T = ATOM BELONGING TO THE ASYMMETRIC UNIT

 TOTAL ENERGY(DFT)(AU)(  7) -8.3735552339775E+02     DE (AU)   -3.256E-06

 UPDATED TRUST RADIUS     0.400E+01

 SYMMETRY ALLOWED FORCES  (COORDINATE, FORCE)

    1 -1.3393457E-05    2 -4.1658958E-04    3  1.7534804E-04    4  2.5603050E-04

 GRADIENT NORM     0.000520  GRADIENT THRESHOLD     0.500000

 EIGENVALUES OF THE ESTIMATED HESSIAN
  0.1221      0.3497      0.5685       1.037    

 PREDICTED ENERGY CHANGE    -0.195E-06

 MAX GRADIENT      0.000417  THRESHOLD              0.000450 CONVERGED YES
 RMS GRADIENT      0.000260  THRESHOLD              0.000300 CONVERGED YES
 MAX DISPLAC.      0.000611  THRESHOLD              0.001800 CONVERGED YES
 RMS DISPLAC.      0.000430  THRESHOLD              0.001200 CONVERGED YES

 CONVERGENCE TESTS SATISFIED AFTER   4 ENERGY AND GRADIENT CALCULATIONS
 +++++++++++++++++++++++++++++++++++++++++++++++++++++++++++++++++++++++++++++++
 FINALRUN OPTION: RE-STARTING OPTIMIZATION
 +++++++++++++++++++++++++++++++++++++++++++++++++++++++++++++++++++++++++++++++
 TTTTTTTTTTTTTTTTTTTTTTTTTTTTTT OPTI        TELAPSE      232.10 TCPU      206.78
 MMMMM OPTI        USED MEM(MB)     11.24 MAX MEM     12.67 TOT MEM       359.74
 *******************************************************************************
 COORDINATE AND CELL OPTIMIZATION - POINT    5
 *******************************************************************************
 LATTICE PARAMETERS (ANGSTROMS AND DEGREES) - BOHR = 0.5291772083 ANGSTROM
 PRIMITIVE CELL - CENTRING CODE 5/0 VOLUME=   163.935930 - DENSITY  2.674 g/cm^3
         A              B              C           ALPHA      BETA       GAMMA 
     6.14322443     6.14322443     6.14322443    60.000000  60.000000  60.000000
 *******************************************************************************
 ATOMS IN THE ASYMMETRIC UNIT    3 - ATOMS IN THE UNIT CELL:   22
     ATOM                 X/A                 Y/B                 Z/C    
[...]
  22 C    6  5.867  0.855  1.117  0.772  0.380  1.259  0.266  1.141  0.076

 OVERLAP POPULATION CONDENSED TO ATOMS FOR FIRST   6 NEIGHBORS

 ATOM A   1 C    ATOM B     CELL      R(AB)/AU R(AB)/ANG    OVPOP(AB)
                  7 C    ( -1  0  0)     2.899     1.534     0.318
                 11 C    (  0  0  0)     5.011     2.652    -0.027
                 11 C    ( -1  1  0)     6.792     3.594     0.002
                  3 C    (  0  0  0)     6.951     3.678    -0.001
                  2 C    (  0  0  0)     8.209     4.344     0.000
                 11 C    ( -1  0  1)     9.145     4.839    -0.000

 ATOM A   3 C    ATOM B     CELL      R(AB)/AU R(AB)/ANG    OVPOP(AB)
                  2 C    (  0  0  0)     2.899     1.534     0.318
                 11 C    (  0  0  0)     2.918     1.544     0.322
                 12 C    (  0  0  0)     4.579     2.423    -0.027
                  4 C    (  0  0 -1)     4.733     2.505    -0.032
                  8 C    (  0  0  0)     4.862     2.573    -0.057
                 13 C    ( -1  0  0)     5.571     2.948    -0.010

 ATOM A  11 C    ATOM B     CELL      R(AB)/AU R(AB)/ANG    OVPOP(AB)
                 12 C    (  0  0  0)     2.561     1.355     0.551
                  3 C    (  0  0  0)     2.918     1.544     0.322
                 15 C    (  0  0  0)     4.423     2.341    -0.049
                  4 C    (  0  0  0)     4.579     2.423    -0.027
                  1 C    (  0  0  0)     5.011     2.652    -0.027
                  5 C    ( -1  0  0)     5.571     2.948    -0.010
 TTTTTTTTTTTTTTTTTTTTTTTTTTTTTT AFTER FIRST TELAPSE      273.28 TCPU      244.15
 MMMMM AFTER FIRST USED MEM(MB)     20.06 MAX MEM     20.06 TOT MEM       641.65
 MMMMMMMMMMMMMMMMMMMMMMMMMMMMMMMMMMMMMMMMMMMMMMMMMMMMMMMMMMMMMMMMMMMMMMMMMMMMMMM
     ALPHA-BETA ELECTRONS
 MULLIKEN POPULATION ANALYSIS - NO. OF ELECTRONS    0.000000

  ATOM    Z CHARGE  A.O. POPULATION

   1 C    6  0.000  0.000  0.000 -0.000  0.000  0.000  0.000  0.000 -0.000
                   -0.000 -0.000  0.000  0.000  0.000  0.000 -0.000 -0.000
                    0.000 -0.000
   2 C    6  0.000  0.000  0.000 -0.000  0.000  0.000  0.000  0.000 -0.000
                   -0.000 -0.000  0.000  0.000  0.000  0.000 -0.000 -0.000
                    0.000 -0.000
   3 C    6 -0.000 -0.000 -0.000  0.000 -0.000 -0.000 -0.000 -0.000  0.000
                    0.000  0.000 -0.000 -0.000 -0.000 -0.000 -0.000 -0.000
                   -0.000 -0.000
   4 C    6 -0.000 -0.000 -0.000  0.000 -0.000 -0.000 -0.000 -0.000  0.000
                    0.000  0.000 -0.000 -0.000 -0.000 -0.000 -0.000 -0.000
                   -0.000 -0.000
   5 C    6 -0.000 -0.000 -0.000  0.000 -0.000 -0.000 -0.000 -0.000  0.000
                    0.000  0.000 -0.000 -0.000 -0.000 -0.000 -0.000 -0.000
                   -0.000 -0.000
   6 C    6 -0.000 -0.000 -0.000  0.000 -0.000 -0.000 -0.000 -0.000  0.000
                    0.000  0.000 -0.000 -0.000 -0.000 -0.000 -0.000 -0.000
                   -0.000 -0.000
   7 C    6 -0.000 -0.000 -0.000  0.000 -0.000 -0.000 -0.000 -0.000  0.000
                    0.000  0.000 -0.000 -0.000 -0.000 -0.000 -0.000 -0.000
                   -0.000 -0.000
   8 C    6 -0.000 -0.000 -0.000  0.000 -0.000 -0.000 -0.000 -0.000  0.000
                    0.000  0.000 -0.000 -0.000 -0.000 -0.000 -0.000 -0.000
                   -0.000 -0.000
   9 C    6 -0.000 -0.000 -0.000  0.000 -0.000 -0.000 -0.000 -0.000  0.000
                    0.000  0.000 -0.000 -0.000 -0.000 -0.000 -0.000 -0.000
                   -0.000 -0.000
  10 C    6 -0.000 -0.000 -0.000  0.000 -0.000 -0.000 -0.000 -0.000  0.000
                    0.000  0.000 -0.000 -0.000 -0.000 -0.000 -0.000 -0.000
                   -0.000 -0.000
  11 C    6  0.000 -0.000  0.000 -0.000  0.000 -0.000 -0.000  0.000  0.000
                   -0.000 -0.000 -0.000 -0.000  0.000  0.000  0.000  0.000
                   -0.000 -0.000
  12 C    6  0.000 -0.000  0.000 -0.000  0.000 -0.000 -0.000  0.000  0.000
                   -0.000 -0.000 -0.000 -0.000  0.000  0.000  0.000  0.000
                   -0.000 -0.000
  13 C    6  0.000 -0.000  0.000 -0.000  0.000 -0.000 -0.000  0.000  0.000
                   -0.000 -0.000 -0.000 -0.000  0.000  0.000  0.000  0.000
                   -0.000 -0.000
  14 C    6  0.000 -0.000  0.000 -0.000  0.000 -0.000 -0.000  0.000  0.000
                   -0.000 -0.000 -0.000 -0.000  0.000  0.000  0.000  0.000
                   -0.000 -0.000
  15 C    6  0.000 -0.000  0.000 -0.000  0.000  0.000 -0.000 -0.000 -0.000
                    0.000 -0.000  0.000 -0.000 -0.000 -0.000  0.000 -0.000
                    0.000  0.000
  16 C    6  0.000 -0.000  0.000 -0.000  0.000 -0.000  0.000 -0.000 -0.000
                   -0.000  0.000 -0.000  0.000 -0.000 -0.000 -0.000  0.000
                   -0.000  0.000
  17 C    6  0.000 -0.000  0.000 -0.000  0.000  0.000 -0.000 -0.000 -0.000
                    0.000 -0.000  0.000 -0.000 -0.000 -0.000  0.000 -0.000
                    0.000  0.000
  18 C    6  0.000 -0.000  0.000 -0.000  0.000 -0.000  0.000 -0.000 -0.000
                   -0.000  0.000 -0.000  0.000 -0.000 -0.000 -0.000  0.000
                   -0.000  0.000
  19 C    6  0.000 -0.000  0.000 -0.000  0.000  0.000 -0.000 -0.000 -0.000
                    0.000 -0.000  0.000 -0.000 -0.000 -0.000  0.000 -0.000
                    0.000  0.000
  20 C    6  0.000 -0.000  0.000 -0.000  0.000 -0.000  0.000 -0.000 -0.000
                   -0.000  0.000 -0.000  0.000 -0.000 -0.000 -0.000  0.000
                   -0.000  0.000
  21 C    6  0.000 -0.000  0.000 -0.000  0.000  0.000 -0.000 -0.000 -0.000
                    0.000 -0.000  0.000 -0.000 -0.000 -0.000  0.000 -0.000
                    0.000  0.000
  22 C    6  0.000 -0.000  0.000 -0.000  0.000 -0.000  0.000 -0.000 -0.000
                   -0.000  0.000 -0.000  0.000 -0.000 -0.000 -0.000  0.000
                   -0.000  0.000

  ATOM    Z CHARGE  SHELL POPULATION

   1 C    6  0.000  0.000  0.000 -0.000  0.000  0.000 -0.000  0.000 -0.000
   2 C    6  0.000  0.000  0.000 -0.000  0.000  0.000 -0.000  0.000 -0.000
   3 C    6 -0.000 -0.000 -0.000  0.000 -0.000 -0.000  0.000 -0.000 -0.000
   4 C    6 -0.000 -0.000 -0.000  0.000 -0.000 -0.000  0.000 -0.000 -0.000
   5 C    6 -0.000 -0.000 -0.000  0.000 -0.000 -0.000  0.000 -0.000 -0.000
   6 C    6 -0.000 -0.000 -0.000  0.000 -0.000 -0.000  0.000 -0.000 -0.000
   7 C    6 -0.000 -0.000 -0.000  0.000 -0.000 -0.000  0.000 -0.000 -0.000
   8 C    6 -0.000 -0.000 -0.000  0.000 -0.000 -0.000  0.000 -0.000 -0.000
   9 C    6 -0.000 -0.000 -0.000  0.000 -0.000 -0.000  0.000 -0.000 -0.000
  10 C    6 -0.000 -0.000 -0.000  0.000 -0.000 -0.000  0.000 -0.000 -0.000
  11 C    6  0.000 -0.000  0.000 -0.000  0.000 -0.000 -0.000 -0.000  0.000
  12 C    6  0.000 -0.000  0.000 -0.000  0.000 -0.000 -0.000 -0.000  0.000
  13 C    6  0.000 -0.000  0.000 -0.000  0.000 -0.000 -0.000 -0.000  0.000
  14 C    6  0.000 -0.000  0.000 -0.000  0.000 -0.000 -0.000 -0.000  0.000
  15 C    6  0.000 -0.000  0.000 -0.000  0.000 -0.000 -0.000 -0.000  0.000
  16 C    6  0.000 -0.000  0.000 -0.000  0.000 -0.000 -0.000 -0.000  0.000
  17 C    6  0.000 -0.000  0.000 -0.000  0.000 -0.000 -0.000 -0.000  0.000
  18 C    6  0.000 -0.000  0.000 -0.000  0.000 -0.000 -0.000 -0.000  0.000
  19 C    6  0.000 -0.000  0.000 -0.000  0.000 -0.000 -0.000 -0.000  0.000
  20 C    6  0.000 -0.000  0.000 -0.000  0.000 -0.000 -0.000 -0.000  0.000
  21 C    6  0.000 -0.000  0.000 -0.000  0.000 -0.000 -0.000 -0.000  0.000
  22 C    6  0.000 -0.000  0.000 -0.000  0.000 -0.000 -0.000 -0.000  0.000

 OVERLAP POPULATION CONDENSED TO ATOMS FOR FIRST   6 NEIGHBORS

 ATOM A   1 C    ATOM B     CELL      R(AB)/AU R(AB)/ANG    OVPOP(AB)
                  7 C    ( -1  0  0)     2.899     1.534     0.000
                 11 C    (  0  0  0)     5.011     2.652    -0.000
                 11 C    ( -1  1  0)     6.792     3.594     0.000
                  3 C    (  0  0  0)     6.951     3.678     0.000
                  2 C    (  0  0  0)     8.209     4.344    -0.000
                 11 C    ( -1  0  1)     9.145     4.839    -0.000

 ATOM A   3 C    ATOM B     CELL      R(AB)/AU R(AB)/ANG    OVPOP(AB)
                  2 C    (  0  0  0)     2.899     1.534     0.000
                 11 C    (  0  0  0)     2.918     1.544    -0.000
                 12 C    (  0  0  0)     4.579     2.423    -0.000
                  4 C    (  0  0 -1)     4.733     2.505    -0.000
                  8 C    (  0  0  0)     4.862     2.573    -0.000
                 13 C    ( -1  0  0)     5.571     2.948     0.000

 ATOM A  11 C    ATOM B     CELL      R(AB)/AU R(AB)/ANG    OVPOP(AB)
                 12 C    (  0  0  0)     2.561     1.355    -0.000
                  3 C    (  0  0  0)     2.918     1.544    -0.000
                 15 C    (  0  0  0)     4.423     2.341    -0.000
                  4 C    (  0  0  0)     4.579     2.423    -0.000
                  1 C    (  0  0  0)     5.011     2.652    -0.000
                  5 C    ( -1  0  0)     5.571     2.948     0.000
 EIGENVECTORS IN FORTRAN UNIT  8

 FINAL OPTIMIZED GEOMETRY - DIMENSIONALITY OF THE SYSTEM      3
 (NON PERIODIC DIRECTION: LATTICE PARAMETER FORMALLY SET TO 500)
 *******************************************************************************
 LATTICE PARAMETERS (ANGSTROMS AND DEGREES) - BOHR = 0.5291772083 ANGSTROM
 PRIMITIVE CELL - CENTRING CODE 5/0 VOLUME=   163.935930 - DENSITY  2.674 g/cm^3
         A              B              C           ALPHA      BETA       GAMMA 
     6.14322443     6.14322443     6.14322443    60.000000  60.000000  60.000000
 *******************************************************************************
 ATOMS IN THE ASYMMETRIC UNIT    3 - ATOMS IN THE UNIT CELL:   22
     ATOM                 X/A                 Y/B                 Z/C    
 *******************************************************************************
      1 T   6 C     2.500000000000E-01  2.500000000000E-01  2.500000000000E-01
      2 F   6 C    -2.500000000000E-01 -2.500000000000E-01 -2.500000000000E-01
      3 T   6 C    -1.480644453480E-01 -1.480644453480E-01 -1.480644453480E-01
      4 F   6 C    -1.480644453480E-01 -1.480644453480E-01  4.441933360440E-01
      5 F   6 C     4.441933360440E-01 -1.480644453480E-01 -1.480644453480E-01
      6 F   6 C    -1.480644453480E-01  4.441933360440E-01 -1.480644453480E-01
      7 F   6 C     1.480644453480E-01  1.480644453480E-01  1.480644453480E-01
      8 F   6 C     1.480644453480E-01  1.480644453480E-01 -4.441933360440E-01
      9 F   6 C    -4.441933360440E-01  1.480644453480E-01  1.480644453480E-01
     10 F   6 C     1.480644453480E-01 -4.441933360440E-01  1.480644453480E-01
     11 T   6 C    -2.951192397358E-01 -1.391184007792E-01  1.391184007792E-01
     12 F   6 C    -1.391184007792E-01 -2.951192397358E-01  2.951192397358E-01
     13 F   6 C     2.951192397358E-01  1.391184007792E-01 -1.391184007792E-01
     14 F   6 C     1.391184007792E-01  2.951192397358E-01 -2.951192397358E-01
     15 F   6 C     1.391184007792E-01 -2.951192397358E-01 -1.391184007792E-01
     16 F   6 C    -1.391184007792E-01  1.391184007792E-01 -2.951192397358E-01
     17 F   6 C    -2.951192397358E-01  1.391184007792E-01  2.951192397358E-01
     18 F   6 C    -2.951192397358E-01  2.951192397358E-01 -1.391184007792E-01
     19 F   6 C     2.951192397358E-01 -1.391184007792E-01 -2.951192397358E-01
     20 F   6 C     1.391184007792E-01 -1.391184007792E-01  2.951192397358E-01
     21 F   6 C    -1.391184007792E-01  2.951192397358E-01  1.391184007792E-01
     22 F   6 C     2.951192397358E-01 -2.951192397358E-01  1.391184007792E-01

 TRANSFORMATION MATRIX PRIMITIVE-CRYSTALLOGRAPHIC CELL
 -1.0000  1.0000  1.0000  1.0000 -1.0000  1.0000  1.0000  1.0000 -1.0000

 *******************************************************************************
 CRYSTALLOGRAPHIC CELL (VOLUME=        655.74371864)
         A              B              C           ALPHA      BETA       GAMMA 
     8.68783131     8.68783131     8.68783131    90.000000  90.000000  90.000000

 COORDINATES IN THE CRYSTALLOGRAPHIC CELL
     ATOM                 X/A                 Y/B                 Z/C    
 *******************************************************************************
      1 T   6 C     2.500000000000E-01 -2.500000000000E-01 -2.500000000000E-01
      2 F   6 C    -2.500000000000E-01 -2.500000000000E-01 -2.500000000000E-01
      3 T   6 C    -1.480644453480E-01 -1.480644453480E-01 -1.480644453480E-01
      4 F   6 C     1.480644453480E-01  1.480644453480E-01 -1.480644453480E-01
      5 F   6 C    -1.480644453480E-01  1.480644453480E-01  1.480644453480E-01
      6 F   6 C     1.480644453480E-01 -1.480644453480E-01  1.480644453480E-01
      7 F   6 C     1.480644453480E-01  1.480644453480E-01  1.480644453480E-01
      8 F   6 C    -1.480644453480E-01 -1.480644453480E-01  1.480644453480E-01
      9 F   6 C     1.480644453480E-01 -1.480644453480E-01 -1.480644453480E-01
     10 F   6 C    -1.480644453480E-01  1.480644453480E-01 -1.480644453480E-01
     11 T   6 C     2.539398092274E-20 -7.800041947831E-02 -2.171188202575E-01
     12 F   6 C     1.277837373178E-17  7.800041947831E-02 -2.171188202575E-01
     13 F   6 C    -5.760842448850E-20  7.800041947831E-02  2.171188202575E-01
     14 F   6 C    -1.281058817535E-17 -7.800041947831E-02  2.171188202575E-01
     15 F   6 C    -2.171188202575E-01 -4.150120270562E-20 -7.800041947831E-02
     16 F   6 C    -7.800041947831E-02 -2.171188202575E-01  4.955481359706E-20
     17 F   6 C     2.171188202575E-01  1.279448095357E-17 -7.800041947831E-02
     18 F   6 C     7.800041947831E-02 -2.171188202575E-01  1.280253456446E-17
     19 F   6 C    -2.171188202575E-01 -1.279448095357E-17  7.800041947831E-02
     20 F   6 C     7.800041947831E-02  2.171188202575E-01 -3.344759181418E-20
     21 F   6 C     2.171188202575E-01  4.150120270562E-20  7.800041947831E-02
     22 F   6 C    -7.800041947831E-02  2.171188202575E-01 -1.278642734268E-17

 T = ATOM BELONGING TO THE ASYMMETRIC UNIT
 INFORMATION **** fort.34 **** GEOMETRY OUTPUT FILE

 DIRECT LATTICE VECTORS CARTESIAN COMPONENTS (ANGSTROM)
          X                    Y                    Z
   0.000000000000E+00   0.434391565516E+01   0.434391565516E+01
   0.434391565516E+01   0.000000000000E+00   0.434391565516E+01
   0.434391565516E+01   0.434391565516E+01   0.000000000000E+00


 CARTESIAN COORDINATES - PRIMITIVE CELL
 *******************************************************************************
 *      ATOM          X(ANGSTROM)         Y(ANGSTROM)         Z(ANGSTROM)
 *******************************************************************************
    1     6 C     2.171957827580E+00 -2.171957827580E+00 -2.171957827580E+00
    2     6 C    -2.171957827580E+00 -2.171957827580E+00 -2.171957827580E+00
    3     6 C    -1.286358924240E+00 -1.286358924240E+00 -1.286358924240E+00
    4     6 C     1.286358924240E+00  1.286358924240E+00 -1.286358924240E+00
    5     6 C    -1.286358924240E+00  1.286358924240E+00  1.286358924240E+00
    6     6 C     1.286358924240E+00 -1.286358924240E+00  1.286358924240E+00
    7     6 C     1.286358924240E+00  1.286358924240E+00  1.286358924240E+00
    8     6 C    -1.286358924240E+00 -1.286358924240E+00  1.286358924240E+00
    9     6 C     1.286358924240E+00 -1.286358924240E+00 -1.286358924240E+00
   10     6 C    -1.286358924240E+00  1.286358924240E+00 -1.286358924240E+00
   11     6 C     2.206186225542E-19 -6.776544865618E-01 -1.886291684693E+00
   12     6 C     1.110163554020E-16  6.776544865618E-01 -1.886291684693E+00
   13     6 C    -5.004922740094E-19  6.776544865618E-01  1.886291684693E+00
   14     6 C    -1.112962290534E-16 -6.776544865618E-01  1.886291684693E+00
   15     6 C    -1.886291684693E+00 -3.605554482818E-19 -6.776544865618E-01
   16     6 C    -6.776544865618E-01 -1.886291684693E+00  4.305238611456E-19
   17     6 C     1.886291684693E+00  1.111562922277E-16 -6.776544865618E-01
   18     6 C     6.776544865618E-01 -1.886291684693E+00  1.112262606406E-16
   19     6 C    -1.886291684693E+00 -1.111562922277E-16  6.776544865618E-01
   20     6 C     6.776544865618E-01  1.886291684693E+00 -2.905870354180E-19
   21     6 C     1.886291684693E+00  3.605554482818E-19  6.776544865618E-01
   22     6 C    -6.776544865618E-01  1.886291684693E+00 -1.110863238148E-16

 ****   24 SYMMOPS - TRANSLATORS IN FRACTIONAL UNITS
 **** MATRICES AND TRANSLATORS IN THE CRYSTALLOGRAPHIC REFERENCE FRAME
   V INV                    ROTATION MATRICES                   TRANSLATORS
   1   1  1.00  0.00  0.00  0.00  1.00  0.00  0.00  0.00  1.00  0.00  0.00  0.00
   2   2  0.00  1.00 -0.00  1.00  0.00  0.00 -1.00 -1.00 -1.00  0.00  0.00  0.00
   3   3 -1.00 -1.00 -1.00 -0.00 -0.00  1.00  0.00  1.00 -0.00  0.00  0.00  0.00
   4   4 -0.00 -0.00  1.00 -1.00 -1.00 -1.00  1.00  0.00  0.00  0.00  0.00  0.00
   5   6  0.00  0.00  1.00  1.00 -0.00  0.00 -0.00  1.00 -0.00  0.00  0.00  0.00
   6   5  0.00  1.00  0.00 -0.00  0.00  1.00  1.00 -0.00 -0.00  0.00  0.00  0.00
   7   8  1.00 -0.00  0.00  0.00  0.00  1.00 -1.00 -1.00 -1.00  0.00  0.00  0.00
   8   7  1.00 -0.00 -0.00 -1.00 -1.00 -1.00  0.00  1.00  0.00  0.00  0.00  0.00
   9  10 -1.00 -1.00 -1.00 -0.00  1.00 -0.00  1.00 -0.00  0.00  0.00  0.00  0.00
  10   9 -0.00  0.00  1.00  0.00  1.00  0.00 -1.00 -1.00 -1.00  0.00  0.00  0.00
  11  12 -0.00  1.00 -0.00 -1.00 -1.00 -1.00  0.00  0.00  1.00  0.00  0.00  0.00
  12  11 -1.00 -1.00 -1.00  1.00 -0.00 -0.00 -0.00  0.00  1.00  0.00  0.00  0.00
  13  13 -1.00 -0.00 -0.00 -0.00 -1.00  0.00  0.00  0.00 -1.00  0.00  0.00  0.00
  14  14 -0.00 -1.00  0.00 -1.00 -0.00 -0.00  1.00  1.00  1.00  0.00  0.00  0.00
  15  15  1.00  1.00  1.00  0.00  0.00 -1.00 -0.00 -1.00  0.00  0.00  0.00  0.00
  16  16  0.00  0.00 -1.00  1.00  1.00  1.00 -1.00 -0.00 -0.00  0.00  0.00  0.00
  17  18 -0.00 -0.00 -1.00 -1.00  0.00 -0.00  0.00 -1.00  0.00  0.00  0.00  0.00
  18  17 -0.00 -1.00 -0.00  0.00 -0.00 -1.00 -1.00  0.00  0.00  0.00  0.00  0.00
  19  20 -1.00  0.00 -0.00 -0.00 -0.00 -1.00  1.00  1.00  1.00  0.00  0.00  0.00
  20  19 -1.00  0.00  0.00  1.00  1.00  1.00 -0.00 -1.00 -0.00  0.00  0.00  0.00
  21  22  1.00  1.00  1.00  0.00 -1.00  0.00 -1.00  0.00 -0.00  0.00  0.00  0.00
  22  21  0.00 -0.00 -1.00 -0.00 -1.00 -0.00  1.00  1.00  1.00  0.00  0.00  0.00
  23  24  0.00 -1.00  0.00  1.00  1.00  1.00 -0.00 -0.00 -1.00  0.00  0.00  0.00
  24  23  1.00  1.00  1.00 -1.00  0.00  0.00  0.00 -0.00 -1.00  0.00  0.00  0.00
 TTTTTTTTTTTTTTTTTTTTTTTTTTTTTT END         TELAPSE      274.07 TCPU      244.62
 MMMMM END         USED MEM(MB)      6.49 MAX MEM     20.06 TOT MEM       207.79
 EEEEEEEEEE TERMINATION  DATE 20 11 2024 TIME 07:03:29.2
NODE    0 CPU TIME =       244.619
NODE    1 CPU TIME =       247.772
NODE    2 CPU TIME =       247.493
NODE    3 CPU TIME =       247.427
NODE    4 CPU TIME =       246.396
NODE    5 CPU TIME =       244.322
NODE    6 CPU TIME =       244.580
NODE    7 CPU TIME =       246.635
NODE    8 CPU TIME =       243.651
NODE    9 CPU TIME =       245.536
NODE   10 CPU TIME =       243.996
NODE   11 CPU TIME =       241.979
NODE   12 CPU TIME =       247.326
NODE   13 CPU TIME =       248.286
NODE   14 CPU TIME =       243.126
NODE   15 CPU TIME =       244.458
NODE   16 CPU TIME =       242.891
NODE   17 CPU TIME =       246.921
NODE   18 CPU TIME =       244.774
NODE   19 CPU TIME =       247.217
NODE   20 CPU TIME =       242.620
NODE   21 CPU TIME =       248.836
NODE   22 CPU TIME =       244.565
NODE   23 CPU TIME =       243.699
NODE   24 CPU TIME =       243.350
NODE   25 CPU TIME =       248.905
NODE   26 CPU TIME =       247.067
NODE   27 CPU TIME =       241.908
NODE   28 CPU TIME =       247.623
NODE   29 CPU TIME =       244.239
NODE   30 CPU TIME =       244.676
NODE   31 CPU TIME =       246.985
    TOTAL CPU TIME =      7853.879
