
         
 *******************************************************************************
 *                                                                             *
 *                               CRYSTAL23                                     *
 *                      public : 1.0.1 - October 2022                          *
 *                       HTTP://WWW.CRYSTAL.UNITO.IT                           *
 *                                                                             *
 *                              MAIN AUTHORS                                   *
 *                                                                             *
 *  R. DOVESI(1,11), V.R. SAUNDERS(2), C. ROETTI(1,11), R. ORLANDO(1,11),      *
 *  C.M. ZICOVICH-WILSON(1,3), F. PASCALE(4), B. CIVALLERI(1,11),              *
 *  K. DOLL(5), N.M. HARRISON(6), I.J. BUSH(7), Ph. D'ARCO(8),                 *
 *  M. LLUNELL(9), M. CAUSA'(10), Y. NOEL(8), L. MASCHIO(1,11), A. ERBA(1,11)  *
 *  M. RE'RAT(14), S. CASASSA(1,11), B.G. SEARLE(2), J.K. DESMARAIS(1)         *
 *                                                                             *
 *        CONTRIBUTIONS TO THE CODE HAVE ALSO BEEN GIVEN BY                    *
 *                                                                             *
 *  M. FERRABONE(1,11), M. DE LA PIERRE(1,11), M. FERRERO(1,11),               *
 *  J. BAIMA(1,11), E. ALBANESE(1,11), M.F. PEINTINGER(12), R. BAST(13),       *
 *  B. KIRTMAN(15), V. LACIVITA(1,11), R. DEMICHELIS(1,16)                     *
 *  G. BRANDEBURG(17), S. SALUSTRO(1,11), G. SANSONE(1,11)                     *
 *  M.T. RUGGIERO(18), L.E. DAGA(1), L. DONA'(1), A. COSSARD(1)                *
 *                                                                             *
 * (1) THEORETICAL CHEMISTRY GROUP - UNIVERSITA' DI TORINO - TORINO (ITALY)    *
 * (2) SCIENTIFIC COMPUTING DEPARTMENT - STFC DARESBURY (UK)                   *
 * (3) UNIVERSIDAD AUTONOMA DEL ESTADO DE MORELOS - CUERNAVACA (MEXICO)        *
 * (4) UNIVERSITE' DE LORRAINE - NANCY (FRANCE)                                *
 * (5) UNIVERSITAET STUTTGART- STUTTGART (GERMANY)                             *
 * (6) IMPERIAL COLLEGE - LONDON (UK)                                          *
 * (7) SCIENTIFIC COMPUTING DEPARTMENT - STFC RAL (UK)                         *
 * (8) UPMC - SORBONNE UNIVERSITES - PARIS (FRANCE)                            *
 * (9) UNIVERSIDAD DE BARCELONA - BARCELONA (SPAIN)                            *
 *(10) UNIVERSITA' DI NAPOLI "FEDERICO II" - NAPOLI (ITALY)                    *
 *(11) NIS - NANOSTRUCTURED INTERFACES AND SURFACES - TORINO (ITALY)           *
 *(12) MPI FUER CHEMISCHE ENERGIEKONVERSION - MUELHEIM AN DER RUHR (GERMANY)   *
 *(13) UNIVERSITY OF TROMSO - TROMSO (NORWAY)                                  *
 *(14) UNIVERSITE' DE PAU ET DES PAYS DE L'ADOUR - PAU (FRANCE)                *
 *(15) UNIVERSITY OF CALIFORNIA SANTA BARBARA - SANTA BARBARA (USA)            *
 *(16) CURTIN UNIVERSITY - PERTH (AUSTRALIA)                                   *
 *(17) UNIVERSITY COLLEGE LONDON - LONDON (UK)                                 *
 *(18) UNIVERSITY OF VERMONT - BURLINGTON (USA)                                *
 *                                                                             *
 *******************************************************************************
 EEEEEEEEEE STARTING  DATE 20 11 2024 TIME 21:47:50.6
 3.4^9T2                                                                         

 CRYSTAL CALCULATION
 (INPUT ACCORDING TO THE INTERNATIONAL TABLES FOR X-RAY CRYSTALLOGRAPHY)
 CRYSTAL FAMILY                       :  TRICLINIC   
 CRYSTAL CLASS  (GROTH - 1921)        :  TRICLINIC PINAKOIDAL                 

 SPACE GROUP (CENTROSYMMETRIC)        :  P -1            

 LATTICE PARAMETERS  (ANGSTROMS AND DEGREES) - CONVENTIONAL CELL
        A           B           C        ALPHA        BETA       GAMMA
     5.06830     5.13260     5.78200    87.60000    83.97300    65.85100


 NUMBER OF IRREDUCIBLE ATOMS IN THE CONVENTIONAL CELL:   10

 INPUT COORDINATES

 ATOM AT. N.              COORDINATES
   1   6     4.916600000000E-01  6.429200000000E-01  2.727500000000E-01
   2   6     2.855700000000E-01  8.752200000000E-01  4.317500000000E-01
   3   6     6.228700000000E-01  8.307800000000E-01  1.258100000000E-01
   4   6     3.794500000000E-01  1.649700000000E-01  1.384000000000E-01
   5   6     1.292600000000E-01  1.539900000000E-01  3.182600000000E-01
   6   6     8.675200000000E-01  8.292300000000E-01  2.527900000000E-01
   7   6     1.607900000000E-01  8.766700000000E-01  6.920200000000E-01
   8   6     4.751900000000E-01  6.609000000000E-01  7.424400000000E-01
   9   6     1.055300000000E-01  3.430300000000E-01  5.182800000000E-01
  10   6     5.919300000000E-01  6.910900000000E-01  4.958400000000E-01

 *******************************************************************************

 << INFORMATION >>: FROM NOW ON, ALL COORDINATES REFER TO THE PRIMITIVE CELL

 *******************************************************************************

 LATTICE PARAMETERS  (ANGSTROMS AND DEGREES) - PRIMITIVE CELL
       A          B          C        ALPHA      BETA     GAMMA        VOLUME
    5.06830    5.13260    5.78200    87.60000  83.97300  65.85100    136.488438

 COORDINATES OF THE EQUIVALENT ATOMS (FRACTIONAL UNITS)

 N. ATOM EQUIV AT. N.          X                  Y                  Z

   1   1   1    6 C     4.91660000000E-01 -3.57080000000E-01  2.72750000000E-01
   2   1   2    6 C    -4.91660000000E-01  3.57080000000E-01 -2.72750000000E-01

   3   2   1    6 C     2.85570000000E-01 -1.24780000000E-01  4.31750000000E-01
   4   2   2    6 C    -2.85570000000E-01  1.24780000000E-01 -4.31750000000E-01

   5   3   1    6 C    -3.77130000000E-01 -1.69220000000E-01  1.25810000000E-01
   6   3   2    6 C     3.77130000000E-01  1.69220000000E-01 -1.25810000000E-01

   7   4   1    6 C     3.79450000000E-01  1.64970000000E-01  1.38400000000E-01
   8   4   2    6 C    -3.79450000000E-01 -1.64970000000E-01 -1.38400000000E-01

   9   5   1    6 C     1.29260000000E-01  1.53990000000E-01  3.18260000000E-01
  10   5   2    6 C    -1.29260000000E-01 -1.53990000000E-01 -3.18260000000E-01

  11   6   1    6 C    -1.32480000000E-01 -1.70770000000E-01  2.52790000000E-01
  12   6   2    6 C     1.32480000000E-01  1.70770000000E-01 -2.52790000000E-01

  13   7   1    6 C     1.60790000000E-01 -1.23330000000E-01 -3.07980000000E-01
  14   7   2    6 C    -1.60790000000E-01  1.23330000000E-01  3.07980000000E-01

  15   8   1    6 C     4.75190000000E-01 -3.39100000000E-01 -2.57560000000E-01
  16   8   2    6 C    -4.75190000000E-01  3.39100000000E-01  2.57560000000E-01

  17   9   1    6 C     1.05530000000E-01  3.43030000000E-01 -4.81720000000E-01
  18   9   2    6 C    -1.05530000000E-01 -3.43030000000E-01  4.81720000000E-01

  19  10   1    6 C    -4.08070000000E-01 -3.08910000000E-01  4.95840000000E-01
  20  10   2    6 C     4.08070000000E-01  3.08910000000E-01 -4.95840000000E-01

 NUMBER OF SYMMETRY OPERATORS         :    2
 *******************************************************************************
 * GEOMETRY EDITING - INPUT COORDINATES ARE GIVEN IN ANGSTROM         
 *******************************************************************************

 GEOMETRY NOW FULLY CONSISTENT WITH THE GROUP
 INFORMATION **** NEW DEFAULT **** FINALRUN 4 FOR GEOMETRY OPTIMIZATIONS
 INFORMATION **** NEW DEFAULT **** OPTGEOM OPTIMIZES BOTH ATOMIC COORDINATES AND CELL PARAMETERS
 INFORMATION **** NEW DEFAULT **** TOL. ON ATOMIC DISP TO REDEFINE REF. GEOMETRY: 0.8 Angs
 INFORMATION **** NEW DEFAULT **** N POINTS TO REDEFINE REF. GEOMETRY: N OF OPT DEGS OF FREEDOM
 INFORMATION **** NEW DEFAULT **** TOL. ON ENERGY TO REDEFINE REF. GEOMETRY: 10**-3*(5*N. ATOMS)
 INFORMATION **** FULLOPTG **** FULL OPTIMIZATION (ATOMS AND CELL PARAMETERS)
 INFORMATION **** MAXCYCLE ****   MAXIMUM NUMBER OF OPTIMIZATION CYCLES        1600

 IMPORTANT INFORMATION:
 THE COORDINATE SYSTEM ADOPTED IN THE OPTIMIZATION IS NOT IN
 GENERAL HOMOGENEOUS UNITS. FOR THIS REASON THE GRADIENT AND 
 HESSIAN MATRIX IN TERMS OF THIS SYSTEM ARE GIVEN WITHOUT
 UNITS. FOR MORE DETAILS SEE THE MANUAL.

 *******************************************************************************
 COMBINED CELL/ATOM OPTIMIZATION CONTROL

 INITIAL TRUST RADIUS         0.50000 MAXIMUM TRUST RADIUS               4.00000
 MAXIMUM GRADIENT COMPONENT   0.00045 MAXIMUM DISPLACEMENT COMPONENT     0.00180
 R.M.S. OF GRADIENT COMPONENT 0.00030 R.M.S. OF DISPLACEMENT COMPONENTS  0.00120
 THRESHOLD ON ENERGY CHANGE 0.100E-06 EXTRAPOLATING POLYNOMIAL ORDER           2
 MAXIMUM ALLOWED NUMBER OF STEPS 1600 SORTING OF ENERGY POINTS:               NO
 ANALYTICAL  GRADIENT                 HESSIAN UPDATING                      BFGS
 STEP SIZE NUMERICAL GRADIENT 0.00100
 INITIAL HESSIAN MATRIX: SCHLEGEL MODEL 2
 *******************************************************************************


 GCALCO - MAX INDICES DIRECT LATTICE VECTOR    16    15    13
 NO.OF VECTORS CREATED 6999 STARS 3500 RMAX   115.47986 BOHR

 GEOMETRY FOR WAVE FUNCTION - DIMENSIONALITY OF THE SYSTEM    3
 (NON PERIODIC DIRECTION: LATTICE PARAMETER FORMALLY SET TO 500)
 *******************************************************************************
 LATTICE PARAMETERS (ANGSTROMS AND DEGREES) - BOHR = 0.5291772083 ANGSTROM
 PRIMITIVE CELL - CENTRING CODE 1/0 VOLUME=   136.488438 - DENSITY  2.920 g/cm^3
         A              B              C           ALPHA      BETA       GAMMA 
     5.06830000     5.13260000     5.78200000    87.600000  83.973000  65.851000
 *******************************************************************************
 ATOMS IN THE ASYMMETRIC UNIT   10 - ATOMS IN THE UNIT CELL:   20
     ATOM                 X/A                 Y/B                 Z/C    
 *******************************************************************************
      1 T   6 C     4.916600000000E-01 -3.570800000000E-01  2.727500000000E-01
      2 F   6 C    -4.916600000000E-01  3.570800000000E-01 -2.727500000000E-01
      3 T   6 C     2.855700000000E-01 -1.247800000000E-01  4.317500000000E-01
      4 F   6 C    -2.855700000000E-01  1.247800000000E-01 -4.317500000000E-01
      5 T   6 C    -3.771300000000E-01 -1.692200000000E-01  1.258100000000E-01
      6 F   6 C     3.771300000000E-01  1.692200000000E-01 -1.258100000000E-01
      7 T   6 C     3.794500000000E-01  1.649700000000E-01  1.384000000000E-01
      8 F   6 C    -3.794500000000E-01 -1.649700000000E-01 -1.384000000000E-01
      9 T   6 C     1.292600000000E-01  1.539900000000E-01  3.182600000000E-01
     10 F   6 C    -1.292600000000E-01 -1.539900000000E-01 -3.182600000000E-01
     11 T   6 C    -1.324800000000E-01 -1.707700000000E-01  2.527900000000E-01
     12 F   6 C     1.324800000000E-01  1.707700000000E-01 -2.527900000000E-01
     13 T   6 C     1.607900000000E-01 -1.233300000000E-01 -3.079800000000E-01
     14 F   6 C    -1.607900000000E-01  1.233300000000E-01  3.079800000000E-01
     15 T   6 C     4.751900000000E-01 -3.391000000000E-01 -2.575600000000E-01
     16 F   6 C    -4.751900000000E-01  3.391000000000E-01  2.575600000000E-01
     17 T   6 C     1.055300000000E-01  3.430300000000E-01 -4.817200000000E-01
     18 F   6 C    -1.055300000000E-01 -3.430300000000E-01  4.817200000000E-01
     19 T   6 C    -4.080700000000E-01 -3.089100000000E-01  4.958400000000E-01
     20 F   6 C     4.080700000000E-01  3.089100000000E-01 -4.958400000000E-01

 T = ATOM BELONGING TO THE ASYMMETRIC UNIT

 ****    2 SYMMOPS - TRANSLATORS IN FRACTIONAL UNITS
 **** MATRICES AND TRANSLATORS IN THE CRYSTALLOGRAPHIC REFERENCE FRAME
   V INV                    ROTATION MATRICES                   TRANSLATORS
   1   1  1.00  0.00  0.00  0.00  1.00  0.00  0.00  0.00  1.00  0.00  0.00  0.00
   2   2 -1.00  0.00  0.00 -0.00 -1.00  0.00  0.00  0.00 -1.00  0.00  0.00  0.00

 DIRECT LATTICE VECTORS CARTESIAN COMPONENTS (ANGSTROM)
          X                    Y                    Z
   0.462474587365E+01   0.207349716522E+01   0.000000000000E+00
   0.000000000000E+00   0.513260000000E+01   0.000000000000E+00
   0.556762555426E+00   0.242125029862E+00   0.575003608048E+01


 CARTESIAN COORDINATES - PRIMITIVE CELL
 *******************************************************************************
 *      ATOM          X(ANGSTROM)         Y(ANGSTROM)         Z(ANGSTROM)
 *******************************************************************************
    1     6 C     2.425659543231E+00 -7.472535898539E-01  1.568322340950E+00
    2     6 C    -2.425659543231E+00  7.472535898539E-01 -1.568322340950E+00
    3     6 C     1.561070912443E+00  5.622023911439E-02  2.482578077746E+00
    4     6 C    -1.561070912443E+00 -5.622023911439E-02 -2.482578077746E+00
    5     6 C    -1.674084114231E+00 -1.620054807912E+00  7.234120392848E-01
    6     6 C     1.674084114231E+00  1.620054807912E+00 -7.234120392848E-01
    7     6 C     1.831915759427E+00  1.667023625475E+00  7.958049935380E-01
    8     6 C    -1.831915759427E+00 -1.667023625475E+00 -7.958049935380E-01
    9     6 C     7.749899025179E-01  1.135448029580E+00  1.830006482973E+00
   10     6 C    -7.749899025179E-01 -1.135448029580E+00 -1.830006482973E+00
   11     6 C    -4.719423269547E-01 -1.089984220149E+00  1.453551620784E+00
   12     6 C     4.719423269547E-01  1.089984220149E+00 -1.453551620784E+00
   13     6 C     5.721411572037E-01 -3.741756155015E-01 -1.770896112065E+00
   14     6 C    -5.721411572037E-01  3.741756155015E-01  1.770896112065E+00
   15     6 C     2.054233227924E+00 -8.175212647513E-01 -1.480979292888E+00
   16     6 C    -2.054233227924E+00  8.175212647513E-01  1.480979292888E+00
   17     6 C     2.198457738461E-01  1.862815464460E+00 -2.769907380687E+00
   18     6 C    -2.198457738461E-01 -1.862815464460E+00  2.769907380687E+00
   19     6 C     2.456828415045E+00 -4.802160440477E-01 -2.898938190333E+00
   20     6 C    -2.456828415045E+00  4.802160440477E-01  2.898938190333E+00

 *******************************************************************************
 LOCAL ATOMIC FUNCTIONS BASIS SET
 *******************************************************************************
   ATOM   X(AU)   Y(AU)   Z(AU)  N. TYPE  EXPONENT  S COEF   P COEF   D/F/G COEF
 *******************************************************************************
   1 C    4.584  -1.412   2.964
                                  1 S  
                                         1.358E+04 2.225E-04 0.000E+00 0.000E+00
                                         2.035E+03 1.723E-03 0.000E+00 0.000E+00
                                         4.632E+02 8.926E-03 0.000E+00 0.000E+00
                                         1.312E+02 3.573E-02 0.000E+00 0.000E+00
                                         4.285E+01 1.108E-01 0.000E+00 0.000E+00
                                         1.558E+01 2.430E-01 0.000E+00 0.000E+00
                                  2 S  
                                         6.207E+00 4.144E-01 0.000E+00 0.000E+00
                                         2.576E+00 2.374E-01 0.000E+00 0.000E+00
                                  3 S  
                                         4.941E-01 1.000E+00 0.000E+00 0.000E+00
                                  4 S  
                                         1.644E-01 1.000E+00 0.000E+00 0.000E+00
                           5-     7 P  
                                         3.470E+01 0.000E+00 5.333E-03 0.000E+00
                                         7.958E+00 0.000E+00 3.586E-02 0.000E+00
                                         2.378E+00 0.000E+00 1.422E-01 0.000E+00
                                         8.143E-01 0.000E+00 3.427E-01 0.000E+00
                           8-    10 P  
                                         5.662E-01 0.000E+00 1.000E+00 0.000E+00
                          11-    13 P  
                                         1.974E-01 0.000E+00 1.000E+00 0.000E+00
                          14-    18 D  
                                         5.792E-01 0.000E+00 0.000E+00 1.000E+00
   2 C   -4.584   1.412  -2.964
   3 C    2.950   0.106   4.691
   4 C   -2.950  -0.106  -4.691
   5 C   -3.164  -3.061   1.367
   6 C    3.164   3.061  -1.367
   7 C    3.462   3.150   1.504
   8 C   -3.462  -3.150  -1.504
   9 C    1.465   2.146   3.458
  10 C   -1.465  -2.146  -3.458
  11 C   -0.892  -2.060   2.747
  12 C    0.892   2.060  -2.747
  13 C    1.081  -0.707  -3.347
  14 C   -1.081   0.707   3.347
  15 C    3.882  -1.545  -2.799
  16 C   -3.882   1.545   2.799
  17 C    0.415   3.520  -5.234
  18 C   -0.415  -3.520   5.234
  19 C    4.643  -0.907  -5.478
  20 C   -4.643   0.907   5.478
 INFORMATION **** SET_MPP **** PCRYSTAL CALCULATION
 INFORMATION **** READM2 **** NEW DEFAULT: FOCK/KS MATRIX MIXING SET TO 30 %
 INFORMATION **** READM2 **** NEW DEFAULT: FULL DIRECT SCF MODE
 INFORMATION **** READM2 **** NEW DEFAULT: COULOMB BIPOLAR BUFFER SET TO 32 Mb
 INFORMATION **** READM2 **** NEW DEFAULT: EXCHANGE BIPOLAR BUFFER SET TO 32 Mb

 *******************************************************************************
 NEW DEFAULT: DFT INTEGRATION GRID INCREASED TO XLGRID
 NEW DEFAULT: DIIS ACCELERATOR ACTIVE
 USE KEYWORD NODIIS TO TURN IT OFF
 *******************************************************************************

 INFORMATION **** DFTD3_INPUT **** PERFORM LATEST DISPERSION CORRECTION DFT-D3(BJ) WITH AUTOMATIC PARAMETER SETUP
 PLEASE CITE:
 (1) DFT-D3 Reference
  S. Grimme, J. Antony, S. Ehrlich, and H. Krieg, J. Chem. Phys. 132 (2010), 154104
 (2) BJ-Damping Reference
  S. Grimme, S. Ehrlich, and L. Goerigk, J. Comput. Chem. 32 (2011), 1456-1465
 (3) General DFT-D Review
  S. Grimme, A. Hansen, J. G. Brandenburg, and C. Bannwarth,
  Chem. Rev. 116 (2016), 5105-5154

 INFORMATION **** TOLINTEG **** COULOMB AND EXCHANGE SERIES TOLERANCES MODIFIED
 INFORMATION **** TOLDEE **** SCF TOL ON TOTAL ENERGY SET TO           7
 INFORMATION **** READM2 **** FULL DIRECT SCF (MONO AND BIEL INT) SELECTED
 INFORMATION **** SAVEWF **** not fully tested
 INFORMATION **** SAVEPRED **** WRITING REDUCIBLE DENSITY MATRIX IN UNIT 13
 INFORMATION **** BIPOSIZE **** COULOMB BIPOLAR BUFFER SET TO   110000000
 INFORMATION **** EXCHSIZE **** EXCHANGE BIPOLAR BUFFER SIZE SET TO   110000000
 INFORMATION **** MAXCYCLE **** MAX NUMBER OF SCF CYCLES SET TO        1600
 INFORMATION **** DIIS **** DIIS FOR SCF ACTIVE
 INFORMATION **** DIIS **** LEVEL SHIFTER DISABLED
 INFORMATION **** PPAN ****  MULLIKEN POPULATION ANALYSIS AT THE END OF SCF
 *******************************************************************************
 N. OF ATOMS PER CELL        20  COULOMB OVERLAP TOL         (T1) 10**   -7
 NUMBER OF SHELLS           160  COULOMB PENETRATION TOL     (T2) 10**   -7
 NUMBER OF AO               360  EXCHANGE OVERLAP TOL        (T3) 10**   20
 N. OF ELECTRONS PER CELL   120  EXCHANGE PSEUDO OVP (F(G))  (T4) 10**   20
 CORE ELECTRONS PER CELL     40  EXCHANGE PSEUDO OVP (P(G))  (T5) 10**   20
 N. OF SYMMETRY OPERATORS     2  POLE ORDER IN MONO ZONE                  4
 *******************************************************************************
 TYPE OF CALCULATION :  UNRESTRICTED OPEN SHELL
 KOHN-SHAM HAMILTONIAN

 (EXCHANGE)[CORRELATION] FUNCTIONAL:(PERDEW-BURKE-ERNZERHOF)[PERDEW-BURKE-ERNZERHOF]


 SPIN POLARIZED DFT SELECTED

 CAPPA:IS1 10;IS2 10;IS3 10; K PTS MONK NET 504; SYMMOPS:K SPACE   2;G SPACE   2

 *******************************************************************************
 MAX NUMBER OF SCF CYCLES    1600  CONVERGENCE ON DELTAP        10**-17
 WEIGHT OF F(I) IN F(I+1)      80% CONVERGENCE ON ENERGY        10**- 7
 SHRINK. FACT.(MONKH.)   10 10 10  NUMBER OF K POINTS IN THE IBZ    504
 SHRINKING FACTOR(GILAT NET)   20  NUMBER OF K POINTS(GILAT NET)   4004
 *******************************************************************************
 *** K POINTS COORDINATES (OBLIQUE COORDINATES IN UNITS OF IS = 10)
   1-R(  0  0  0)   2-C(  1  0  0)   3-C(  2  0  0)   4-C(  3  0  0)
   5-C(  4  0  0)   6-R(  5  0  0)   7-C(  0  1  0)   8-C(  1  1  0)
   9-C(  2  1  0)  10-C(  3  1  0)  11-C(  4  1  0)  12-C(  5  1  0)
  13-C(  6  1  0)  14-C(  7  1  0)  15-C(  8  1  0)  16-C(  9  1  0)
  17-C(  0  2  0)  18-C(  1  2  0)  19-C(  2  2  0)  20-C(  3  2  0)
  21-C(  4  2  0)  22-C(  5  2  0)  23-C(  6  2  0)  24-C(  7  2  0)
  25-C(  8  2  0)  26-C(  9  2  0)  27-C(  0  3  0)  28-C(  1  3  0)
  29-C(  2  3  0)  30-C(  3  3  0)  31-C(  4  3  0)  32-C(  5  3  0)
  33-C(  6  3  0)  34-C(  7  3  0)  35-C(  8  3  0)  36-C(  9  3  0)
  37-C(  0  4  0)  38-C(  1  4  0)  39-C(  2  4  0)  40-C(  3  4  0)
  41-C(  4  4  0)  42-C(  5  4  0)  43-C(  6  4  0)  44-C(  7  4  0)
  45-C(  8  4  0)  46-C(  9  4  0)  47-R(  0  5  0)  48-C(  1  5  0)
  49-C(  2  5  0)  50-C(  3  5  0)  51-C(  4  5  0)  52-R(  5  5  0)
  53-C(  0  0  1)  54-C(  1  0  1)  55-C(  2  0  1)  56-C(  3  0  1)
  57-C(  4  0  1)  58-C(  5  0  1)  59-C(  6  0  1)  60-C(  7  0  1)
  61-C(  8  0  1)  62-C(  9  0  1)  63-C(  0  1  1)  64-C(  1  1  1)
  65-C(  2  1  1)  66-C(  3  1  1)  67-C(  4  1  1)  68-C(  5  1  1)
  69-C(  6  1  1)  70-C(  7  1  1)  71-C(  8  1  1)  72-C(  9  1  1)
  73-C(  0  2  1)  74-C(  1  2  1)  75-C(  2  2  1)  76-C(  3  2  1)
  77-C(  4  2  1)  78-C(  5  2  1)  79-C(  6  2  1)  80-C(  7  2  1)
  81-C(  8  2  1)  82-C(  9  2  1)  83-C(  0  3  1)  84-C(  1  3  1)
  85-C(  2  3  1)  86-C(  3  3  1)  87-C(  4  3  1)  88-C(  5  3  1)
  89-C(  6  3  1)  90-C(  7  3  1)  91-C(  8  3  1)  92-C(  9  3  1)
  93-C(  0  4  1)  94-C(  1  4  1)  95-C(  2  4  1)  96-C(  3  4  1)
  97-C(  4  4  1)  98-C(  5  4  1)  99-C(  6  4  1) 100-C(  7  4  1)
 101-C(  8  4  1) 102-C(  9  4  1) 103-C(  0  5  1) 104-C(  1  5  1)
 105-C(  2  5  1) 106-C(  3  5  1) 107-C(  4  5  1) 108-C(  5  5  1)
 109-C(  6  5  1) 110-C(  7  5  1) 111-C(  8  5  1) 112-C(  9  5  1)
 113-C(  0  6  1) 114-C(  1  6  1) 115-C(  2  6  1) 116-C(  3  6  1)
 117-C(  4  6  1) 118-C(  5  6  1) 119-C(  6  6  1) 120-C(  7  6  1)
 121-C(  8  6  1) 122-C(  9  6  1) 123-C(  0  7  1) 124-C(  1  7  1)
 125-C(  2  7  1) 126-C(  3  7  1) 127-C(  4  7  1) 128-C(  5  7  1)
 129-C(  6  7  1) 130-C(  7  7  1) 131-C(  8  7  1) 132-C(  9  7  1)
 133-C(  0  8  1) 134-C(  1  8  1) 135-C(  2  8  1) 136-C(  3  8  1)
 137-C(  4  8  1) 138-C(  5  8  1) 139-C(  6  8  1) 140-C(  7  8  1)
 141-C(  8  8  1) 142-C(  9  8  1) 143-C(  0  9  1) 144-C(  1  9  1)
 145-C(  2  9  1) 146-C(  3  9  1) 147-C(  4  9  1) 148-C(  5  9  1)
 149-C(  6  9  1) 150-C(  7  9  1) 151-C(  8  9  1) 152-C(  9  9  1)
 153-C(  0  0  2) 154-C(  1  0  2) 155-C(  2  0  2) 156-C(  3  0  2)
 157-C(  4  0  2) 158-C(  5  0  2) 159-C(  6  0  2) 160-C(  7  0  2)
 161-C(  8  0  2) 162-C(  9  0  2) 163-C(  0  1  2) 164-C(  1  1  2)
 165-C(  2  1  2) 166-C(  3  1  2) 167-C(  4  1  2) 168-C(  5  1  2)
 169-C(  6  1  2) 170-C(  7  1  2) 171-C(  8  1  2) 172-C(  9  1  2)
 173-C(  0  2  2) 174-C(  1  2  2) 175-C(  2  2  2) 176-C(  3  2  2)
 177-C(  4  2  2) 178-C(  5  2  2) 179-C(  6  2  2) 180-C(  7  2  2)
 181-C(  8  2  2) 182-C(  9  2  2) 183-C(  0  3  2) 184-C(  1  3  2)
 185-C(  2  3  2) 186-C(  3  3  2) 187-C(  4  3  2) 188-C(  5  3  2)
 189-C(  6  3  2) 190-C(  7  3  2) 191-C(  8  3  2) 192-C(  9  3  2)
 193-C(  0  4  2) 194-C(  1  4  2) 195-C(  2  4  2) 196-C(  3  4  2)
 197-C(  4  4  2) 198-C(  5  4  2) 199-C(  6  4  2) 200-C(  7  4  2)
 201-C(  8  4  2) 202-C(  9  4  2) 203-C(  0  5  2) 204-C(  1  5  2)
 205-C(  2  5  2) 206-C(  3  5  2) 207-C(  4  5  2) 208-C(  5  5  2)
 209-C(  6  5  2) 210-C(  7  5  2) 211-C(  8  5  2) 212-C(  9  5  2)
 213-C(  0  6  2) 214-C(  1  6  2) 215-C(  2  6  2) 216-C(  3  6  2)
 217-C(  4  6  2) 218-C(  5  6  2) 219-C(  6  6  2) 220-C(  7  6  2)
 221-C(  8  6  2) 222-C(  9  6  2) 223-C(  0  7  2) 224-C(  1  7  2)
 225-C(  2  7  2) 226-C(  3  7  2) 227-C(  4  7  2) 228-C(  5  7  2)
 229-C(  6  7  2) 230-C(  7  7  2) 231-C(  8  7  2) 232-C(  9  7  2)
 233-C(  0  8  2) 234-C(  1  8  2) 235-C(  2  8  2) 236-C(  3  8  2)
 237-C(  4  8  2) 238-C(  5  8  2) 239-C(  6  8  2) 240-C(  7  8  2)
 241-C(  8  8  2) 242-C(  9  8  2) 243-C(  0  9  2) 244-C(  1  9  2)
 245-C(  2  9  2) 246-C(  3  9  2) 247-C(  4  9  2) 248-C(  5  9  2)
 249-C(  6  9  2) 250-C(  7  9  2) 251-C(  8  9  2) 252-C(  9  9  2)
 253-C(  0  0  3) 254-C(  1  0  3) 255-C(  2  0  3) 256-C(  3  0  3)
 257-C(  4  0  3) 258-C(  5  0  3) 259-C(  6  0  3) 260-C(  7  0  3)
 261-C(  8  0  3) 262-C(  9  0  3) 263-C(  0  1  3) 264-C(  1  1  3)
 265-C(  2  1  3) 266-C(  3  1  3) 267-C(  4  1  3) 268-C(  5  1  3)
 269-C(  6  1  3) 270-C(  7  1  3) 271-C(  8  1  3) 272-C(  9  1  3)
 273-C(  0  2  3) 274-C(  1  2  3) 275-C(  2  2  3) 276-C(  3  2  3)
 277-C(  4  2  3) 278-C(  5  2  3) 279-C(  6  2  3) 280-C(  7  2  3)
 281-C(  8  2  3) 282-C(  9  2  3) 283-C(  0  3  3) 284-C(  1  3  3)
 285-C(  2  3  3) 286-C(  3  3  3) 287-C(  4  3  3) 288-C(  5  3  3)
 289-C(  6  3  3) 290-C(  7  3  3) 291-C(  8  3  3) 292-C(  9  3  3)
 293-C(  0  4  3) 294-C(  1  4  3) 295-C(  2  4  3) 296-C(  3  4  3)
 297-C(  4  4  3) 298-C(  5  4  3) 299-C(  6  4  3) 300-C(  7  4  3)
 301-C(  8  4  3) 302-C(  9  4  3) 303-C(  0  5  3) 304-C(  1  5  3)
 305-C(  2  5  3) 306-C(  3  5  3) 307-C(  4  5  3) 308-C(  5  5  3)
 309-C(  6  5  3) 310-C(  7  5  3) 311-C(  8  5  3) 312-C(  9  5  3)
 313-C(  0  6  3) 314-C(  1  6  3) 315-C(  2  6  3) 316-C(  3  6  3)
 317-C(  4  6  3) 318-C(  5  6  3) 319-C(  6  6  3) 320-C(  7  6  3)
 321-C(  8  6  3) 322-C(  9  6  3) 323-C(  0  7  3) 324-C(  1  7  3)
 325-C(  2  7  3) 326-C(  3  7  3) 327-C(  4  7  3) 328-C(  5  7  3)
 329-C(  6  7  3) 330-C(  7  7  3) 331-C(  8  7  3) 332-C(  9  7  3)
 333-C(  0  8  3) 334-C(  1  8  3) 335-C(  2  8  3) 336-C(  3  8  3)
 337-C(  4  8  3) 338-C(  5  8  3) 339-C(  6  8  3) 340-C(  7  8  3)
 341-C(  8  8  3) 342-C(  9  8  3) 343-C(  0  9  3) 344-C(  1  9  3)
 345-C(  2  9  3) 346-C(  3  9  3) 347-C(  4  9  3) 348-C(  5  9  3)
 349-C(  6  9  3) 350-C(  7  9  3) 351-C(  8  9  3) 352-C(  9  9  3)
 353-C(  0  0  4) 354-C(  1  0  4) 355-C(  2  0  4) 356-C(  3  0  4)
 357-C(  4  0  4) 358-C(  5  0  4) 359-C(  6  0  4) 360-C(  7  0  4)
 361-C(  8  0  4) 362-C(  9  0  4) 363-C(  0  1  4) 364-C(  1  1  4)
 365-C(  2  1  4) 366-C(  3  1  4) 367-C(  4  1  4) 368-C(  5  1  4)
 369-C(  6  1  4) 370-C(  7  1  4) 371-C(  8  1  4) 372-C(  9  1  4)
 373-C(  0  2  4) 374-C(  1  2  4) 375-C(  2  2  4) 376-C(  3  2  4)
 377-C(  4  2  4) 378-C(  5  2  4) 379-C(  6  2  4) 380-C(  7  2  4)
 381-C(  8  2  4) 382-C(  9  2  4) 383-C(  0  3  4) 384-C(  1  3  4)
 385-C(  2  3  4) 386-C(  3  3  4) 387-C(  4  3  4) 388-C(  5  3  4)
 389-C(  6  3  4) 390-C(  7  3  4) 391-C(  8  3  4) 392-C(  9  3  4)
 393-C(  0  4  4) 394-C(  1  4  4) 395-C(  2  4  4) 396-C(  3  4  4)
 397-C(  4  4  4) 398-C(  5  4  4) 399-C(  6  4  4) 400-C(  7  4  4)
 401-C(  8  4  4) 402-C(  9  4  4) 403-C(  0  5  4) 404-C(  1  5  4)
 405-C(  2  5  4) 406-C(  3  5  4) 407-C(  4  5  4) 408-C(  5  5  4)
 409-C(  6  5  4) 410-C(  7  5  4) 411-C(  8  5  4) 412-C(  9  5  4)
 413-C(  0  6  4) 414-C(  1  6  4) 415-C(  2  6  4) 416-C(  3  6  4)
 417-C(  4  6  4) 418-C(  5  6  4) 419-C(  6  6  4) 420-C(  7  6  4)
 421-C(  8  6  4) 422-C(  9  6  4) 423-C(  0  7  4) 424-C(  1  7  4)
 425-C(  2  7  4) 426-C(  3  7  4) 427-C(  4  7  4) 428-C(  5  7  4)
 429-C(  6  7  4) 430-C(  7  7  4) 431-C(  8  7  4) 432-C(  9  7  4)
 433-C(  0  8  4) 434-C(  1  8  4) 435-C(  2  8  4) 436-C(  3  8  4)
 437-C(  4  8  4) 438-C(  5  8  4) 439-C(  6  8  4) 440-C(  7  8  4)
 441-C(  8  8  4) 442-C(  9  8  4) 443-C(  0  9  4) 444-C(  1  9  4)
 445-C(  2  9  4) 446-C(  3  9  4) 447-C(  4  9  4) 448-C(  5  9  4)
 449-C(  6  9  4) 450-C(  7  9  4) 451-C(  8  9  4) 452-C(  9  9  4)
 453-R(  0  0  5) 454-C(  1  0  5) 455-C(  2  0  5) 456-C(  3  0  5)
 457-C(  4  0  5) 458-R(  5  0  5) 459-C(  0  1  5) 460-C(  1  1  5)
 461-C(  2  1  5) 462-C(  3  1  5) 463-C(  4  1  5) 464-C(  5  1  5)
 465-C(  6  1  5) 466-C(  7  1  5) 467-C(  8  1  5) 468-C(  9  1  5)
 469-C(  0  2  5) 470-C(  1  2  5) 471-C(  2  2  5) 472-C(  3  2  5)
 473-C(  4  2  5) 474-C(  5  2  5) 475-C(  6  2  5) 476-C(  7  2  5)
 477-C(  8  2  5) 478-C(  9  2  5) 479-C(  0  3  5) 480-C(  1  3  5)
 481-C(  2  3  5) 482-C(  3  3  5) 483-C(  4  3  5) 484-C(  5  3  5)
 485-C(  6  3  5) 486-C(  7  3  5) 487-C(  8  3  5) 488-C(  9  3  5)
 489-C(  0  4  5) 490-C(  1  4  5) 491-C(  2  4  5) 492-C(  3  4  5)
 493-C(  4  4  5) 494-C(  5  4  5) 495-C(  6  4  5) 496-C(  7  4  5)
 497-C(  8  4  5) 498-C(  9  4  5) 499-R(  0  5  5) 500-C(  1  5  5)
 501-C(  2  5  5) 502-C(  3  5  5) 503-C(  4  5  5) 504-R(  5  5  5)

 DIRECT LATTICE VECTORS COMPON. (A.U.)     RECIP. LATTICE VECTORS COMPON. (A.U.) 
        X            Y            Z              X            Y            Z
    8.7395031    3.9183418    0.0000000      0.7189408    0.0000000   -0.0696134
    0.0000000    9.6992084    0.0000000     -0.2904418    0.6478039    0.0008448
    1.0521288    0.4575500   10.8659935      0.0000000    0.0000000    0.5782431

 DISK SPACE FOR EIGENVECTORS (FTN 10)   129600000 REALS

 SYMMETRY ADAPTION OF THE BLOCH FUNCTIONS ENABLED
 TTTTTTTTTTTTTTTTTTTTTTTTTTTTTT gordsh1     TELAPSE        0.97 TCPU        0.39
 MMMMM gordsh1     USED MEM(MB)     10.69 MAX MEM     10.78 TOT MEM       342.23

 MATRIX SIZE: P(G)  402660, F(G)  201850, P(G) IRR  102204, F(G) IRR  102204
 MAX G-VECTOR INDEX FOR 1- AND 2-ELECTRON INTEGRALS  87

 TTTTTTTTTTTTTTTTTTTTTTTTTTTTTT INPUT       TELAPSE        0.97 TCPU        0.39
 MMMMM INPUT       USED MEM(MB)     11.22 MAX MEM     11.22 TOT MEM       358.99

 NEIGHBORS OF THE NON-EQUIVALENT ATOMS

 N = NUMBER OF NEIGHBORS AT DISTANCE R
    ATOM  N     R/ANG      R/AU   NEIGHBORS (ATOM LABELS AND CELL INDICES)
   1 C    1     1.4930     2.8213    3 C    0 0 0
   1 C    1     1.5001     2.8349   19 C    0 0 1
   1 C    1     1.5039     2.8419   16 C    1-1 0
   1 C    1     1.5592     2.9465    5 C    1 0 0
   1 C    1     2.2786     4.3059   20 C    1-1 0
   1 C    1     2.4478     4.6257   11 C    1 0 0

   3 C    1     1.4861     2.8083    9 C    0 0 0
   3 C    1     1.4930     2.8213    1 C    0 0 0
   3 C    1     1.5272     2.8859   19 C    0 0 1
   3 C    1     1.5690     2.9651   13 C    0 0 1
   3 C    1     2.1663     4.0937   15 C    0 0 1
   3 C    1     2.2495     4.2509   17 C    0 0 1

   5 C    1     1.5031     2.8404   11 C    0 0 0
   5 C    1     1.5281     2.8877    8 C    0 0 0
   5 C    1     1.5592     2.9465    1 C   -1 0 0
   5 C    1     1.6522     3.1221    7 C   -1 0 0
   5 C    1     2.2381     4.2295   19 C   -1 0 1
   5 C    1     2.2548     4.2609    6 C   -1 0 0

   7 C    1     1.5281     2.8877    6 C    0 0 0
   7 C    1     1.5714     2.9695    9 C    0 0 0
   7 C    1     1.5853     2.9958   16 C    1 0 0
   7 C    1     1.6522     3.1221    5 C    1 0 0
   7 C    1     2.2462     4.2448    8 C    1 0 0
   7 C    1     2.3070     4.3596   20 C    1 0 0

   9 C    1     1.4861     2.8083    3 C    0 0 0
   9 C    1     1.5042     2.8426   17 C    0 0 1
   9 C    1     1.5485     2.9262   14 C    0 0 0
   9 C    1     1.5714     2.9695    7 C    0 0 0
   9 C    1     2.2571     4.2652   20 C    1 0 0
   9 C    1     2.4767     4.6802    4 C    0 0 1

  11 C    1     1.5015     2.8374   14 C    0 0 0
  11 C    1     1.5031     2.8404    5 C    0 0 0
  11 C    1     1.5471     2.9237   18 C    0 0 0
  11 C    1     2.1779     4.1156   19 C   -1 0 1
  11 C    1     2.2807     4.3099    4 C    0 0 1
  11 C    1     2.4478     4.6257    1 C   -1 0 0

  13 C    1     1.5015     2.8374   12 C    0 0 0
  13 C    1     1.5485     2.9262   10 C    0 0 0
  13 C    1     1.5690     2.9651    3 C    0 0-1
  13 C    1     1.5739     2.9743   15 C    0 0 0
  13 C    1     2.1990     4.1556   19 C    0 0 0
  13 C    1     2.2712     4.2919    4 C    0 0 0

  15 C    1     1.5039     2.8419    2 C    1-1 0
  15 C    1     1.5121     2.8575   19 C    0 0 0
  15 C    1     1.5739     2.9743   13 C    0 0 0
  15 C    1     1.5853     2.9958    8 C    1 0 0
  15 C    1     2.1663     4.0937    3 C    0 0-1
  15 C    1     2.4665     4.6609   18 C    1 0-1

  17 C    1     1.4641     2.7668   20 C    1 0-1
  17 C    1     1.5042     2.8426    9 C    0 0-1
  17 C    1     1.5471     2.9237   12 C    0 0 0
  17 C    1     1.5472     2.9239   18 C    0 1-1
  17 C    1     2.2495     4.2509    3 C    0 0-1
  17 C    1     2.4651     4.6584    7 C    0 0-1

  19 C    1     1.4641     2.7668   18 C    1 0-1
  19 C    1     1.5001     2.8349    1 C    0 0-1
  19 C    1     1.5121     2.8575   15 C    0 0 0
  19 C    1     1.5272     2.8859    3 C    0 0-1
  19 C    1     2.1779     4.1156   11 C    1 0-1
  19 C    1     2.1990     4.1556   13 C    0 0 0


 SYMMETRY ALLOWED ELASTIC DISTORTION 1
  0.5773503  0.0000000  0.0000000
  0.0000000  0.5773503  0.0000000
  0.0000000  0.0000000  0.5773503

 SYMMETRY ALLOWED ELASTIC DISTORTION 2
  0.8164966  0.0000000  0.0000000
  0.0000000 -0.4082483  0.0000000
  0.0000000  0.0000000 -0.4082483

 SYMMETRY ALLOWED ELASTIC DISTORTION 3
  0.0000000  0.7071068  0.0000000
  0.7071068  0.0000000  0.0000000
  0.0000000  0.0000000  0.0000000

 SYMMETRY ALLOWED ELASTIC DISTORTION 4
  0.0000000  0.0000000  0.0000000
  0.0000000  0.7071068  0.0000000
  0.0000000  0.0000000 -0.7071068

 SYMMETRY ALLOWED ELASTIC DISTORTION 5
  0.0000000  0.0000000  0.7071068
  0.0000000  0.0000000  0.0000000
  0.7071068  0.0000000  0.0000000

 SYMMETRY ALLOWED ELASTIC DISTORTION 6
  0.0000000  0.0000000  0.0000000
  0.0000000  0.0000000  0.7071068
  0.0000000  0.7071068  0.0000000

 SYMMETRY ALLOWED INTERNAL DEGREE(S) OF FREEDOM:  30
 TTTTTTTTTTTTTTTTTTTTTTTTTTTTTT SYMM        TELAPSE        1.02 TCPU        0.43
 MMMMM SYMM        USED MEM(MB)     11.25 MAX MEM     11.42 TOT MEM       359.92
 TTTTTTTTTTTTTTTTTTTTTTTTTTTTTT INT_SCREEN  TELAPSE        1.03 TCPU        0.43
 MMMMM INT_SCREEN  USED MEM(MB)     13.08 MAX MEM     13.15 TOT MEM       418.71

 *******************************************************************************
 *                             OPTIMIZATION STARTS                             *
 *******************************************************************************
 RECLASIFICATION OF INDICES FOR INTEGRAL CALC ACCORDING TO DIFFERENT CRITERIA:
           FIXDELTE                  FIXDELTX              FIXDELTN
          0.10000000               0.80000000                 36
 *******************************************************************************

 *******************************************************************************
 COORDINATE AND CELL OPTIMIZATION - POINT    1

 DFT PARAMETERS

     ATOM       ELECTRONS   NET CHARGE   R(ANGSTROM)
   1   6  C       6.0000      0.0000     0.77000000

 SIZE OF GRID=     275146
 TTTTTTTTTTTTTTTTTTTTTTTTTTTTTT MAKE_GRID2  TELAPSE        1.70 TCPU        1.10
 MMMMM MAKE_GRID2  USED MEM(MB)     27.85 MAX MEM     42.64 TOT MEM       891.10
 BECKE WEIGHT FUNCTION
 RADSAFE =     2.00
 TOLERANCES - DENSITY:10**- 6; POTENTIAL:10**- 9; GRID WGT:10**-14

 RADIAL INTEGRATION  - INTERVALS (POINTS,UPPER LIMIT):            1( 75,  4.0*R)

 ANGULAR INTEGRATION - INTERVALS (ACCURACY LEVEL [N. POINTS] UPPER LIMIT):
  1(  4[  86]   0.2)  2(  8[ 194]   0.5)  3( 12[ 350]   0.9)  4( 16[ 974]   3.5)
  5( 12[ 350]9999.0)
 TTTTTTTTTTTTTTTTTTTTTTTTTTTTTT INT_CALC    TELAPSE        1.73 TCPU        1.13
 MMMMM INT_CALC    USED MEM(MB)     29.23 MAX MEM     29.23 TOT MEM       935.49

 *******************************************************************************
 3.4^9T2                                                                         
 CRYSTAL - SCF - TYPE OF CALCULATION :  UNRESTRICTED OPEN SHELL
 *******************************************************************************

 CAPPA:IS1 10;IS2 10;IS3 10; K PTS MONK NET 504; SYMMOPS:K SPACE   2;G SPACE   2

 TTTTTTTTTTTTTTTTTTTTTTTTTTTTTT SDIK        TELAPSE        3.18 TCPU        2.58
 MMMMM SDIK        USED MEM(MB)     45.58 MAX MEM     45.87 TOT MEM      1458.65

 AAAAAAAAAAAAAAAAAAAAAAAAAAAAAAAAAAAAAAAAAAAAAAAAAAAAAAAAAAAAAAAAAAAAAAAAAAAAAAA
         ATOMIC WAVEFUNCTION(S)


 NUCLEAR CHARGE  6.0  SYMMETRY SPECIES            S    P
 N. ELECTRONS    6.0  NUMBER OF PRIMITIVE GTOS   10    6
                      NUMBER OF CONTRACTED GTOS   4    3
                      NUMBER OF CLOSED SHELLS     2    0
                      OPEN SHELL OCCUPATION       0    2

  ZNUC  SCFIT    TOTAL HF ENERGY   KINETIC ENERGY   VIRIAL THEOREM ACCURACY
   6.0    10    -3.768111494E+01  3.771190961E+01 -1.999183423E+00  3.4E-06

 AAAAAAAAAAAAAAAAAAAAAAAAAAAAAAAAAAAAAAAAAAAAAAAAAAAAAAAAAAAAAAAAAAAAAAAAAAAAAAA

 CHARGE NORMALIZATION FACTOR   1.00000000
 TOTAL ATOMIC CHARGES:
   6.0000000   6.0000000   6.0000000   6.0000000   6.0000000   6.0000000
   6.0000000   6.0000000   6.0000000   6.0000000   6.0000000   6.0000000
   6.0000000   6.0000000   6.0000000   6.0000000   6.0000000   6.0000000
   6.0000000   6.0000000
 SUMMED SPIN DENSITY           0.00000000
 TOTAL ATOMIC SPINS  :
   0.0000000   0.0000000   0.0000000   0.0000000   0.0000000   0.0000000
   0.0000000   0.0000000   0.0000000   0.0000000   0.0000000   0.0000000
   0.0000000   0.0000000   0.0000000   0.0000000   0.0000000   0.0000000
   0.0000000   0.0000000
 TTTTTTTTTTTTTTTTTTTTTTTTTTTTTT MOQGAD      TELAPSE        3.19 TCPU        2.59
 MMMMM MOQGAD      USED MEM(MB)     40.90 MAX MEM     45.58 TOT MEM      1308.90
 TTTTTTTTTTTTTTTTTTTTTTTTTTTTTT SHELLXN     TELAPSE       21.47 TCPU       20.85
 MMMMM SHELLXN     USED MEM(MB)     42.46 MAX MEM     57.98 TOT MEM      1358.81
 TTTTTTTTTTTTTTTTTTTTTTTTTTTTTT MONMO3      TELAPSE       21.65 TCPU       21.04
 MMMMM MONMO3      USED MEM(MB)     42.46 MAX MEM     42.46 TOT MEM      1358.81
 NUMERICALLY INTEGRATED DENSITY     60.0000141547     60.0000141547
 TTTTTTTTTTTTTTTTTTTTTTTTTTTTTT NUMDFT      TELAPSE       23.96 TCPU       23.35
 MMMMM NUMDFT      USED MEM(MB)     48.61 MAX MEM     61.41 TOT MEM      1555.42
 CYC   0 ETOT(AU) -7.681254276979E+02 DETOT -7.68E+02 tst  0.00E+00 PX  1.00E+00
 CYCLE  0 WAVE FUNCTION SAVED IN FORTRAN UNIT 79
 TTTTTTTTTTTTTTTTTTTTTTTTTTTTTT DIIS        TELAPSE       27.65 TCPU       23.95
 MMMMM DIIS        USED MEM(MB)     63.87 MAX MEM     72.07 TOT MEM      2043.69
 TTTTTTTTTTTTTTTTTTTTTTTTTTTTTT FDIK        TELAPSE       51.02 TCPU       47.09
 MMMMM FDIK        USED MEM(MB)     52.95 MAX MEM     63.87 TOT MEM      1694.26

    ALPHA      ELECTRONS
 INSULATING STATE
 TOP OF VALENCE BANDS -    BAND     60; K  458; EIG -2.2940903E-01 AU
 TOP OF VALENCE BANDS -    BAND     60; K    1; EIG -2.4751524E-01 AU
 BOTTOM OF VIRTUAL BANDS - BAND     61; K  458; EIG -2.2816935E-01 AU
 DIRECT ENERGY BAND GAP:   0.0337 eV
 BOTTOM OF VIRTUAL BANDS - BAND     61; K    1; EIG -2.1040941E-01 AU

    BETA       ELECTRONS
 INSULATING STATE
 TOP OF VALENCE BANDS -    BAND     60; K  458; EIG -2.2940903E-01 AU
 TOP OF VALENCE BANDS -    BAND     60; K    1; EIG -2.4751524E-01 AU
 BOTTOM OF VIRTUAL BANDS - BAND     61; K  458; EIG -2.2816935E-01 AU
 DIRECT ENERGY BAND GAP:   0.0337 eV
 BOTTOM OF VIRTUAL BANDS - BAND     61; K    1; EIG -2.1040941E-01 AU
 TTTTTTTTTTTTTTTTTTTTTTTTTTTTTT PDIG        TELAPSE       52.28 TCPU       47.98
 MMMMM PDIG        USED MEM(MB)     48.57 MAX MEM     55.71 TOT MEM      1554.32
 CHARGE NORMALIZATION FACTOR   1.00000000
 TOTAL ATOMIC CHARGES:
   5.8768773   5.8768773   6.2385296   6.2385296   6.0723432   6.0723432
   5.8637074   5.8637074   5.9385775   5.9385775   5.7248583   5.7248583
   6.0234388   6.0234388   5.9083900   5.9083900   6.0410161   6.0410161
   6.3122618   6.3122618
 SUMMED SPIN DENSITY           0.00000000
 TOTAL ATOMIC SPINS  :
  -0.0000000  -0.0000000   0.0000000   0.0000000  -0.0000000  -0.0000000
   0.0000000   0.0000000  -0.0000000  -0.0000000   0.0000000   0.0000000
   0.0000000   0.0000000  -0.0000000  -0.0000000   0.0000000   0.0000000
   0.0000000   0.0000000
 TTTTTTTTTTTTTTTTTTTTTTTTTTTTTT MOQGAD      TELAPSE       52.29 TCPU       47.99
 MMMMM MOQGAD      USED MEM(MB)     48.61 MAX MEM     49.12 TOT MEM      1555.42
 TTTTTTTTTTTTTTTTTTTTTTTTTTTTTT SHELLXN     TELAPSE       73.64 TCPU       69.33
 MMMMM SHELLXN     USED MEM(MB)     50.17 MAX MEM     65.69 TOT MEM      1605.32
 TTTTTTTTTTTTTTTTTTTTTTTTTTTTTT MONMO3      TELAPSE       73.83 TCPU       69.52
 MMMMM MONMO3      USED MEM(MB)     50.17 MAX MEM     50.17 TOT MEM      1605.32
 NUMERICALLY INTEGRATED DENSITY     60.0000087807     60.0000087807
 TTTTTTTTTTTTTTTTTTTTTTTTTTTTTT NUMDFT      TELAPSE       76.22 TCPU       71.91
 MMMMM NUMDFT      USED MEM(MB)     50.17 MAX MEM     62.97 TOT MEM      1605.32
 CYC   1 ETOT(AU) -7.608219121112E+02 DETOT  7.30E+00 tst  0.00E+00 PX  1.00E+00
 CYCLE  1 WAVE FUNCTION SAVED IN FORTRAN UNIT 79
 TTTTTTTTTTTTTTTTTTTTTTTTTTTTTT DIIS        TELAPSE       78.95 TCPU       73.39
 MMMMM DIIS        USED MEM(MB)     65.43 MAX MEM     73.63 TOT MEM      2093.60
 DIIS TEST: 0.10606E+01 AT SCF   CYCLE   1 - MIX   80 %
 TTTTTTTTTTTTTTTTTTTTTTTTTTTTTT FDIK        TELAPSE       88.54 TCPU       82.73
 MMMMM FDIK        USED MEM(MB)     54.51 MAX MEM     65.43 TOT MEM      1744.16

    ALPHA      ELECTRONS
 INSULATING STATE
 TOP OF VALENCE BANDS -    BAND     60; K  458; EIG -1.9851570E-01 AU
 TOP OF VALENCE BANDS -    BAND     60; K    1; EIG -2.1655904E-01 AU
 BOTTOM OF VIRTUAL BANDS - BAND     61; K  458; EIG -1.9688686E-01 AU
 DIRECT ENERGY BAND GAP:   0.0443 eV
 BOTTOM OF VIRTUAL BANDS - BAND     61; K    1; EIG -1.7991865E-01 AU

    BETA       ELECTRONS
 INSULATING STATE
 TOP OF VALENCE BANDS -    BAND     60; K  458; EIG -1.9851570E-01 AU
 TOP OF VALENCE BANDS -    BAND     60; K    1; EIG -2.1655904E-01 AU
 BOTTOM OF VIRTUAL BANDS - BAND     61; K  458; EIG -1.9688686E-01 AU
 DIRECT ENERGY BAND GAP:   0.0443 eV
 BOTTOM OF VIRTUAL BANDS - BAND     61; K    1; EIG -1.7991865E-01 AU
 TTTTTTTTTTTTTTTTTTTTTTTTTTTTTT PDIG        TELAPSE       89.56 TCPU       83.75
 MMMMM PDIG        USED MEM(MB)     50.13 MAX MEM     57.27 TOT MEM      1604.22
 CHARGE NORMALIZATION FACTOR   1.00000000
 TOTAL ATOMIC CHARGES:
   5.8816241   5.8816241   6.1956841   6.1956841   6.0775104   6.0775104
   5.9233624   5.9233624   5.9297234   5.9297234   5.7694053   5.7694053
   6.0333496   6.0333496   5.9386169   5.9386169   6.0176050   6.0176050
   6.2331188   6.2331188
 SUMMED SPIN DENSITY           0.00000000
 TOTAL ATOMIC SPINS  :
  -0.0000000  -0.0000000   0.0000000   0.0000000  -0.0000000  -0.0000000
   0.0000000   0.0000000  -0.0000000  -0.0000000   0.0000000   0.0000000
   0.0000000   0.0000000  -0.0000000  -0.0000000   0.0000000   0.0000000
   0.0000000   0.0000000
 TTTTTTTTTTTTTTTTTTTTTTTTTTTTTT MOQGAD      TELAPSE       89.57 TCPU       83.76
 MMMMM MOQGAD      USED MEM(MB)     50.17 MAX MEM     50.68 TOT MEM      1605.32
 TTTTTTTTTTTTTTTTTTTTTTTTTTTTTT SHELLXN     TELAPSE      110.86 TCPU      105.04
 MMMMM SHELLXN     USED MEM(MB)     51.73 MAX MEM     67.25 TOT MEM      1655.23
 TTTTTTTTTTTTTTTTTTTTTTTTTTTTTT MONMO3      TELAPSE      111.05 TCPU      105.22
 MMMMM MONMO3      USED MEM(MB)     51.73 MAX MEM     51.73 TOT MEM      1655.23
 NUMERICALLY INTEGRATED DENSITY     60.0000086115     60.0000086115
 TTTTTTTTTTTTTTTTTTTTTTTTTTTTTT NUMDFT      TELAPSE      113.43 TCPU      107.61
 MMMMM NUMDFT      USED MEM(MB)     51.73 MAX MEM     64.53 TOT MEM      1655.23
 CYC   2 ETOT(AU) -7.608720296957E+02 DETOT -5.01E-02 tst  8.61E-05 PX  2.83E-02
 CYCLE  2 WAVE FUNCTION SAVED IN FORTRAN UNIT 79
 TTTTTTTTTTTTTTTTTTTTTTTTTTTTTT DIIS        TELAPSE      117.41 TCPU      109.60
 MMMMM DIIS        USED MEM(MB)     66.98 MAX MEM     75.19 TOT MEM      2143.50
 DIIS TEST: 0.32401E+00 AT SCF   CYCLE   2 - DIIS ACTIVE - HISTORY:     2 CYCLES
 TTTTTTTTTTTTTTTTTTTTTTTTTTTTTT FDIK        TELAPSE      127.45 TCPU      119.46
 MMMMM FDIK        USED MEM(MB)     56.06 MAX MEM     66.98 TOT MEM      1794.07

    ALPHA      ELECTRONS
 INSULATING STATE
 TOP OF VALENCE BANDS -    BAND     60; K  458; EIG -7.8523103E-02 AU
 TOP OF VALENCE BANDS -    BAND     60; K    1; EIG -1.0052326E-01 AU
 BOTTOM OF VIRTUAL BANDS - BAND     61; K  458; EIG -7.6849732E-02 AU
 DIRECT ENERGY BAND GAP:   0.0455 eV
 BOTTOM OF VIRTUAL BANDS - BAND     61; K    1; EIG -5.9135131E-02 AU

    BETA       ELECTRONS
 INSULATING STATE
 TOP OF VALENCE BANDS -    BAND     60; K  458; EIG -7.8523103E-02 AU
 TOP OF VALENCE BANDS -    BAND     60; K    1; EIG -1.0052326E-01 AU
 BOTTOM OF VIRTUAL BANDS - BAND     61; K  458; EIG -7.6849732E-02 AU
 DIRECT ENERGY BAND GAP:   0.0455 eV
 BOTTOM OF VIRTUAL BANDS - BAND     61; K    1; EIG -5.9135131E-02 AU
 TTTTTTTTTTTTTTTTTTTTTTTTTTTTTT PDIG        TELAPSE      128.47 TCPU      120.46
 MMMMM PDIG        USED MEM(MB)     51.69 MAX MEM     58.83 TOT MEM      1654.13
 CHARGE NORMALIZATION FACTOR   1.00000000
 TOTAL ATOMIC CHARGES:
   5.8084583   5.8084583   6.2599654   6.2599654   6.0247185   6.0247185
   5.9103749   5.9103749   5.8980170   5.8980170   5.7854603   5.7854603
   6.0155199   6.0155199   5.9434403   5.9434403   6.0108644   6.0108644
   6.3431811   6.3431811
 SUMMED SPIN DENSITY           0.00000000
 TOTAL ATOMIC SPINS  :
   0.0000000   0.0000000   0.0000000   0.0000000  -0.0000000  -0.0000000
   0.0000000   0.0000000  -0.0000000  -0.0000000  -0.0000000  -0.0000000
   0.0000000   0.0000000  -0.0000000  -0.0000000  -0.0000000  -0.0000000
  -0.0000000  -0.0000000
 TTTTTTTTTTTTTTTTTTTTTTTTTTTTTT MOQGAD      TELAPSE      128.48 TCPU      120.47
 MMMMM MOQGAD      USED MEM(MB)     51.73 MAX MEM     52.24 TOT MEM      1655.23
 TTTTTTTTTTTTTTTTTTTTTTTTTTTTTT SHELLXN     TELAPSE      149.82 TCPU      141.80
 MMMMM SHELLXN     USED MEM(MB)     53.29 MAX MEM     68.81 TOT MEM      1705.13
 TTTTTTTTTTTTTTTTTTTTTTTTTTTTTT MONMO3      TELAPSE      150.01 TCPU      141.99
 MMMMM MONMO3      USED MEM(MB)     53.29 MAX MEM     53.29 TOT MEM      1705.13
 NUMERICALLY INTEGRATED DENSITY     60.0000083745     60.0000083745
 TTTTTTTTTTTTTTTTTTTTTTTTTTTTTT NUMDFT      TELAPSE      152.39 TCPU      144.37
 MMMMM NUMDFT      USED MEM(MB)     53.29 MAX MEM     66.09 TOT MEM      1705.13
 CYC   3 ETOT(AU) -7.608923495423E+02 DETOT -2.03E-02 tst  2.83E-04 PX  1.01E-01
 CYCLE  3 WAVE FUNCTION SAVED IN FORTRAN UNIT 79
 TTTTTTTTTTTTTTTTTTTTTTTTTTTTTT DIIS        TELAPSE      156.52 TCPU      147.85
 MMMMM DIIS        USED MEM(MB)     68.54 MAX MEM     76.75 TOT MEM      2193.41
 DIIS TEST: 0.27001E+00 AT SCF   CYCLE   3 - DIIS ACTIVE - HISTORY:     3 CYCLES
 TTTTTTTTTTTTTTTTTTTTTTTTTTTTTT FDIK        TELAPSE      165.76 TCPU      157.08
 MMMMM FDIK        USED MEM(MB)     57.62 MAX MEM     68.54 TOT MEM      1843.97

    ALPHA      ELECTRONS
 INSULATING STATE
 TOP OF VALENCE BANDS -    BAND     60; K  458; EIG -8.6963106E-02 AU
 TOP OF VALENCE BANDS -    BAND     60; K    1; EIG -1.0765646E-01 AU
 BOTTOM OF VIRTUAL BANDS - BAND     61; K  458; EIG -8.5540055E-02 AU
 DIRECT ENERGY BAND GAP:   0.0387 eV
 BOTTOM OF VIRTUAL BANDS - BAND     61; K    1; EIG -6.8579879E-02 AU

    BETA       ELECTRONS
 INSULATING STATE
 TOP OF VALENCE BANDS -    BAND     60; K  458; EIG -8.6963106E-02 AU
 TOP OF VALENCE BANDS -    BAND     60; K    1; EIG -1.0765646E-01 AU
 BOTTOM OF VIRTUAL BANDS - BAND     61; K  458; EIG -8.5540055E-02 AU
 DIRECT ENERGY BAND GAP:   0.0387 eV
 BOTTOM OF VIRTUAL BANDS - BAND     61; K    1; EIG -6.8579879E-02 AU
 TTTTTTTTTTTTTTTTTTTTTTTTTTTTTT PDIG        TELAPSE      166.76 TCPU      158.07
 MMMMM PDIG        USED MEM(MB)     53.25 MAX MEM     60.39 TOT MEM      1704.03
 CHARGE NORMALIZATION FACTOR   1.00000000
 TOTAL ATOMIC CHARGES:
   5.8447578   5.8447578   6.1904126   6.1904126   6.0994500   6.0994500
   5.9600476   5.9600476   5.9169760   5.9169760   5.8224478   5.8224478
   6.0062512   6.0062512   5.9302458   5.9302458   5.9734626   5.9734626
   6.2559485   6.2559485
 SUMMED SPIN DENSITY           0.00000000
 TOTAL ATOMIC SPINS  :
   0.0000000   0.0000000   0.0000000   0.0000000  -0.0000000  -0.0000000
   0.0000000   0.0000000   0.0000000   0.0000000  -0.0000000  -0.0000000
   0.0000000   0.0000000  -0.0000000  -0.0000000  -0.0000000  -0.0000000
  -0.0000000  -0.0000000
 TTTTTTTTTTTTTTTTTTTTTTTTTTTTTT MOQGAD      TELAPSE      166.77 TCPU      158.08
 MMMMM MOQGAD      USED MEM(MB)     53.29 MAX MEM     53.80 TOT MEM      1705.13
 TTTTTTTTTTTTTTTTTTTTTTTTTTTTTT SHELLXN     TELAPSE      188.05 TCPU      179.35
 MMMMM SHELLXN     USED MEM(MB)     54.85 MAX MEM     70.37 TOT MEM      1755.04
 TTTTTTTTTTTTTTTTTTTTTTTTTTTTTT MONMO3      TELAPSE      188.24 TCPU      179.54
 MMMMM MONMO3      USED MEM(MB)     54.85 MAX MEM     54.85 TOT MEM      1755.04
 NUMERICALLY INTEGRATED DENSITY     60.0000084154     60.0000084154
 TTTTTTTTTTTTTTTTTTTTTTTTTTTTTT NUMDFT      TELAPSE      190.62 TCPU      181.91
 MMMMM NUMDFT      USED MEM(MB)     54.85 MAX MEM     67.65 TOT MEM      1755.04
 CYC   4 ETOT(AU) -7.609037412496E+02 DETOT -1.14E-02 tst  1.73E-04 PX  3.07E-02
 CYCLE  4 WAVE FUNCTION SAVED IN FORTRAN UNIT 79
 TTTTTTTTTTTTTTTTTTTTTTTTTTTTTT DIIS        TELAPSE      194.83 TCPU      184.07
 MMMMM DIIS        USED MEM(MB)     70.10 MAX MEM     78.30 TOT MEM      2243.31
 DIIS TEST: 0.36179E-01 AT SCF   CYCLE   4 - DIIS ACTIVE - HISTORY:     4 CYCLES
 TTTTTTTTTTTTTTTTTTTTTTTTTTTTTT FDIK        TELAPSE      203.87 TCPU      193.10
 MMMMM FDIK        USED MEM(MB)     59.18 MAX MEM     70.10 TOT MEM      1893.88

    ALPHA      ELECTRONS
 INSULATING STATE
 TOP OF VALENCE BANDS -    BAND     60; K  458; EIG -8.6276419E-02 AU
 TOP OF VALENCE BANDS -    BAND     60; K    1; EIG -1.0678447E-01 AU
 BOTTOM OF VIRTUAL BANDS - BAND     61; K  458; EIG -8.4710912E-02 AU
 DIRECT ENERGY BAND GAP:   0.0426 eV
 BOTTOM OF VIRTUAL BANDS - BAND     61; K    1; EIG -6.7654299E-02 AU

    BETA       ELECTRONS
 INSULATING STATE
 TOP OF VALENCE BANDS -    BAND     60; K  458; EIG -8.6276419E-02 AU
 TOP OF VALENCE BANDS -    BAND     60; K    1; EIG -1.0678447E-01 AU
 BOTTOM OF VIRTUAL BANDS - BAND     61; K  458; EIG -8.4710912E-02 AU
 DIRECT ENERGY BAND GAP:   0.0426 eV
 BOTTOM OF VIRTUAL BANDS - BAND     61; K    1; EIG -6.7654299E-02 AU
 TTTTTTTTTTTTTTTTTTTTTTTTTTTTTT PDIG        TELAPSE      204.94 TCPU      194.17
 MMMMM PDIG        USED MEM(MB)     54.81 MAX MEM     61.95 TOT MEM      1753.94
 CHARGE NORMALIZATION FACTOR   1.00000000
 TOTAL ATOMIC CHARGES:
   5.8477187   5.8477187   6.1907009   6.1907009   6.0607265   6.0607265
   5.9530889   5.9530889   5.9157758   5.9157758   5.8087406   5.8087406
   6.0210055   6.0210055   5.9586625   5.9586625   5.9970867   5.9970867
   6.2464940   6.2464940
 SUMMED SPIN DENSITY          -0.00000000
 TOTAL ATOMIC SPINS  :
   0.0000000   0.0000000   0.0000000   0.0000000  -0.0000000  -0.0000000
   0.0000000   0.0000000  -0.0000000  -0.0000000  -0.0000000  -0.0000000
   0.0000000   0.0000000  -0.0000000  -0.0000000  -0.0000000  -0.0000000
  -0.0000000  -0.0000000
 TTTTTTTTTTTTTTTTTTTTTTTTTTTTTT MOQGAD      TELAPSE      204.95 TCPU      194.18
 MMMMM MOQGAD      USED MEM(MB)     54.85 MAX MEM     55.36 TOT MEM      1755.04
 TTTTTTTTTTTTTTTTTTTTTTTTTTTTTT SHELLXN     TELAPSE      226.31 TCPU      215.52
 MMMMM SHELLXN     USED MEM(MB)     56.40 MAX MEM     71.93 TOT MEM      1804.94
 TTTTTTTTTTTTTTTTTTTTTTTTTTTTTT MONMO3      TELAPSE      226.49 TCPU      215.71
 MMMMM MONMO3      USED MEM(MB)     56.40 MAX MEM     56.40 TOT MEM      1804.94
 NUMERICALLY INTEGRATED DENSITY     60.0000084467     60.0000084467
 TTTTTTTTTTTTTTTTTTTTTTTTTTTTTT NUMDFT      TELAPSE      228.88 TCPU      218.09
 MMMMM NUMDFT      USED MEM(MB)     56.40 MAX MEM     69.21 TOT MEM      1804.94
 CYC   5 ETOT(AU) -7.609052457605E+02 DETOT -1.50E-03 tst  1.22E-05 PX  8.13E-03
 CYCLE  5 WAVE FUNCTION SAVED IN FORTRAN UNIT 79
 TTTTTTTTTTTTTTTTTTTTTTTTTTTTTT DIIS        TELAPSE      232.62 TCPU      219.26
 MMMMM DIIS        USED MEM(MB)     71.66 MAX MEM     79.86 TOT MEM      2293.22
 DIIS TEST: 0.18507E-02 AT SCF   CYCLE   5 - DIIS ACTIVE - HISTORY:     5 CYCLES
 TTTTTTTTTTTTTTTTTTTTTTTTTTTTTT FDIK        TELAPSE      241.84 TCPU      228.46
 MMMMM FDIK        USED MEM(MB)     60.74 MAX MEM     71.66 TOT MEM      1943.78

    ALPHA      ELECTRONS
 INSULATING STATE
 TOP OF VALENCE BANDS -    BAND     60; K  458; EIG -8.6216413E-02 AU
 TOP OF VALENCE BANDS -    BAND     60; K    1; EIG -1.0683552E-01 AU
 BOTTOM OF VIRTUAL BANDS - BAND     61; K  458; EIG -8.4667158E-02 AU
 DIRECT ENERGY BAND GAP:   0.0422 eV
 BOTTOM OF VIRTUAL BANDS - BAND     61; K    1; EIG -6.7631604E-02 AU

    BETA       ELECTRONS
 INSULATING STATE
 TOP OF VALENCE BANDS -    BAND     60; K  458; EIG -8.6216413E-02 AU
 TOP OF VALENCE BANDS -    BAND     60; K    1; EIG -1.0683552E-01 AU
 BOTTOM OF VIRTUAL BANDS - BAND     61; K  458; EIG -8.4667158E-02 AU
 DIRECT ENERGY BAND GAP:   0.0422 eV
 BOTTOM OF VIRTUAL BANDS - BAND     61; K    1; EIG -6.7631604E-02 AU
 TTTTTTTTTTTTTTTTTTTTTTTTTTTTTT PDIG        TELAPSE      242.97 TCPU      229.60
 MMMMM PDIG        USED MEM(MB)     56.37 MAX MEM     63.51 TOT MEM      1803.84
 CHARGE NORMALIZATION FACTOR   1.00000000
 TOTAL ATOMIC CHARGES:
   5.8416659   5.8416659   6.1993898   6.1993898   6.0693444   6.0693444
   5.9549134   5.9549134   5.9118215   5.9118215   5.8096567   5.8096567
   6.0179505   6.0179505   5.9499809   5.9499809   5.9911420   5.9911420
   6.2541350   6.2541350
 SUMMED SPIN DENSITY           0.00000000
 TOTAL ATOMIC SPINS  :
   0.0000000   0.0000000   0.0000000   0.0000000   0.0000000   0.0000000
   0.0000000   0.0000000  -0.0000000  -0.0000000  -0.0000000  -0.0000000
  -0.0000000  -0.0000000  -0.0000000  -0.0000000  -0.0000000  -0.0000000
  -0.0000000  -0.0000000
 TTTTTTTTTTTTTTTTTTTTTTTTTTTTTT MOQGAD      TELAPSE      242.98 TCPU      229.61
 MMMMM MOQGAD      USED MEM(MB)     56.40 MAX MEM     56.92 TOT MEM      1804.94
 TTTTTTTTTTTTTTTTTTTTTTTTTTTTTT SHELLXN     TELAPSE      264.28 TCPU      250.90
 MMMMM SHELLXN     USED MEM(MB)     57.96 MAX MEM     73.49 TOT MEM      1854.84
 TTTTTTTTTTTTTTTTTTTTTTTTTTTTTT MONMO3      TELAPSE      264.47 TCPU      251.08
 MMMMM MONMO3      USED MEM(MB)     57.96 MAX MEM     57.96 TOT MEM      1854.84
 NUMERICALLY INTEGRATED DENSITY     60.0000084138     60.0000084138
 TTTTTTTTTTTTTTTTTTTTTTTTTTTTTT NUMDFT      TELAPSE      266.85 TCPU      253.46
 MMMMM NUMDFT      USED MEM(MB)     57.96 MAX MEM     70.77 TOT MEM      1854.84
 CYC   6 ETOT(AU) -7.609053307575E+02 DETOT -8.50E-05 tst  4.62E-07 PX  2.26E-03
 CYCLE  6 WAVE FUNCTION SAVED IN FORTRAN UNIT 79
 TTTTTTTTTTTTTTTTTTTTTTTTTTTTTT DIIS        TELAPSE      269.82 TCPU      254.75
 MMMMM DIIS        USED MEM(MB)     73.22 MAX MEM     81.42 TOT MEM      2343.12
 DIIS TEST: 0.16104E-03 AT SCF   CYCLE   6 - DIIS ACTIVE - HISTORY:     6 CYCLES
 TTTTTTTTTTTTTTTTTTTTTTTTTTTTTT FDIK        TELAPSE      279.06 TCPU      263.98
 MMMMM FDIK        USED MEM(MB)     62.30 MAX MEM     73.22 TOT MEM      1993.69

    ALPHA      ELECTRONS
 INSULATING STATE
 TOP OF VALENCE BANDS -    BAND     60; K  458; EIG -8.6182583E-02 AU
 TOP OF VALENCE BANDS -    BAND     60; K    1; EIG -1.0675025E-01 AU
 BOTTOM OF VIRTUAL BANDS - BAND     61; K  458; EIG -8.4586172E-02 AU
 DIRECT ENERGY BAND GAP:   0.0434 eV
 BOTTOM OF VIRTUAL BANDS - BAND     61; K    1; EIG -6.7555955E-02 AU

    BETA       ELECTRONS
 INSULATING STATE
 TOP OF VALENCE BANDS -    BAND     60; K  458; EIG -8.6182583E-02 AU
 TOP OF VALENCE BANDS -    BAND     60; K    1; EIG -1.0675025E-01 AU
 BOTTOM OF VIRTUAL BANDS - BAND     61; K  458; EIG -8.4586172E-02 AU
 DIRECT ENERGY BAND GAP:   0.0434 eV
 BOTTOM OF VIRTUAL BANDS - BAND     61; K    1; EIG -6.7555955E-02 AU
 TTTTTTTTTTTTTTTTTTTTTTTTTTTTTT PDIG        TELAPSE      280.09 TCPU      265.00
 MMMMM PDIG        USED MEM(MB)     57.93 MAX MEM     65.07 TOT MEM      1853.75
 CHARGE NORMALIZATION FACTOR   1.00000000
 TOTAL ATOMIC CHARGES:
   5.8438943   5.8438943   6.1962241   6.1962241   6.0682115   6.0682115
   5.9526257   5.9526257   5.9136189   5.9136189   5.8100553   5.8100553
   6.0180784   6.0180784   5.9513837   5.9513837   5.9922732   5.9922732
   6.2536349   6.2536349
 SUMMED SPIN DENSITY           0.00000000
 TOTAL ATOMIC SPINS  :
   0.0000000   0.0000000   0.0000000   0.0000000   0.0000000   0.0000000
  -0.0000000  -0.0000000  -0.0000000  -0.0000000   0.0000000   0.0000000
  -0.0000000  -0.0000000   0.0000000   0.0000000  -0.0000000  -0.0000000
  -0.0000000  -0.0000000
 TTTTTTTTTTTTTTTTTTTTTTTTTTTTTT MOQGAD      TELAPSE      280.10 TCPU      265.01
 MMMMM MOQGAD      USED MEM(MB)     57.96 MAX MEM     58.48 TOT MEM      1854.84
 TTTTTTTTTTTTTTTTTTTTTTTTTTTTTT SHELLXN     TELAPSE      301.48 TCPU      286.38
 MMMMM SHELLXN     USED MEM(MB)     59.52 MAX MEM     75.04 TOT MEM      1904.75
 TTTTTTTTTTTTTTTTTTTTTTTTTTTTTT MONMO3      TELAPSE      301.67 TCPU      286.57
 MMMMM MONMO3      USED MEM(MB)     59.52 MAX MEM     59.52 TOT MEM      1904.75
 NUMERICALLY INTEGRATED DENSITY     60.0000084178     60.0000084178
 TTTTTTTTTTTTTTTTTTTTTTTTTTTTTT NUMDFT      TELAPSE      304.05 TCPU      288.95
 MMMMM NUMDFT      USED MEM(MB)     59.52 MAX MEM     72.33 TOT MEM      1904.75
 CYC   7 ETOT(AU) -7.609053405212E+02 DETOT -9.76E-06 tst  7.57E-08 PX  7.08E-04
 CYCLE  7 WAVE FUNCTION SAVED IN FORTRAN UNIT 79
 TTTTTTTTTTTTTTTTTTTTTTTTTTTTTT DIIS        TELAPSE      306.99 TCPU      291.03
 MMMMM DIIS        USED MEM(MB)     74.78 MAX MEM     82.98 TOT MEM      2393.02
 DIIS TEST: 0.26709E-04 AT SCF   CYCLE   7 - DIIS ACTIVE - HISTORY:     7 CYCLES
 TTTTTTTTTTTTTTTTTTTTTTTTTTTTTT FDIK        TELAPSE      316.18 TCPU      300.21
 MMMMM FDIK        USED MEM(MB)     63.86 MAX MEM     74.78 TOT MEM      2043.59

    ALPHA      ELECTRONS
 INSULATING STATE
 TOP OF VALENCE BANDS -    BAND     60; K  458; EIG -8.6156996E-02 AU
 TOP OF VALENCE BANDS -    BAND     60; K    1; EIG -1.0675782E-01 AU
 BOTTOM OF VIRTUAL BANDS - BAND     61; K  458; EIG -8.4604984E-02 AU
 DIRECT ENERGY BAND GAP:   0.0422 eV
 BOTTOM OF VIRTUAL BANDS - BAND     61; K    1; EIG -6.7559184E-02 AU

    BETA       ELECTRONS
 INSULATING STATE
 TOP OF VALENCE BANDS -    BAND     60; K  458; EIG -8.6156996E-02 AU
 TOP OF VALENCE BANDS -    BAND     60; K    1; EIG -1.0675782E-01 AU
 BOTTOM OF VIRTUAL BANDS - BAND     61; K  458; EIG -8.4604984E-02 AU
 DIRECT ENERGY BAND GAP:   0.0422 eV
 BOTTOM OF VIRTUAL BANDS - BAND     61; K    1; EIG -6.7559184E-02 AU
 TTTTTTTTTTTTTTTTTTTTTTTTTTTTTT PDIG        TELAPSE      317.17 TCPU      301.20
 MMMMM PDIG        USED MEM(MB)     59.49 MAX MEM     66.63 TOT MEM      1903.65
 CHARGE NORMALIZATION FACTOR   1.00000000
 TOTAL ATOMIC CHARGES:
   5.8431590   5.8431590   6.1975504   6.1975504   6.0677894   6.0677894
   5.9540462   5.9540462   5.9130362   5.9130362   5.8094718   5.8094718
   6.0183474   6.0183474   5.9514206   5.9514206   5.9920045   5.9920045
   6.2531744   6.2531744
 SUMMED SPIN DENSITY          -0.00000000
 TOTAL ATOMIC SPINS  :
   0.0000000   0.0000000   0.0000000   0.0000000   0.0000000   0.0000000
  -0.0000000  -0.0000000  -0.0000000  -0.0000000   0.0000000   0.0000000
  -0.0000000  -0.0000000  -0.0000000  -0.0000000  -0.0000000  -0.0000000
   0.0000000   0.0000000
 TTTTTTTTTTTTTTTTTTTTTTTTTTTTTT MOQGAD      TELAPSE      317.18 TCPU      301.21
 MMMMM MOQGAD      USED MEM(MB)     59.52 MAX MEM     60.04 TOT MEM      1904.75
 TTTTTTTTTTTTTTTTTTTTTTTTTTTTTT SHELLXN     TELAPSE      338.47 TCPU      322.49
 MMMMM SHELLXN     USED MEM(MB)     61.08 MAX MEM     76.60 TOT MEM      1954.65
 TTTTTTTTTTTTTTTTTTTTTTTTTTTTTT MONMO3      TELAPSE      338.66 TCPU      322.67
 MMMMM MONMO3      USED MEM(MB)     61.08 MAX MEM     61.08 TOT MEM      1954.65
 NUMERICALLY INTEGRATED DENSITY     60.0000084208     60.0000084208
 TTTTTTTTTTTTTTTTTTTTTTTTTTTTTT NUMDFT      TELAPSE      341.04 TCPU      325.06
 MMMMM NUMDFT      USED MEM(MB)     61.08 MAX MEM     73.89 TOT MEM      1954.65
 CYC   8 ETOT(AU) -7.609053405180E+02 DETOT  3.15E-09 tst  3.48E-08 PX  2.56E-04
 CYCLE  8 WAVE FUNCTION SAVED IN FORTRAN UNIT 79
 TTTTTTTTTTTTTTTTTTTTTTTTTTTTTT DIIS        TELAPSE      343.36 TCPU      325.99
 MMMMM DIIS        USED MEM(MB)     76.34 MAX MEM     84.54 TOT MEM      2442.93
 DIIS TEST: 0.43106E-05 AT SCF   CYCLE   8 - DIIS ACTIVE - HISTORY:     8 CYCLES
 TTTTTTTTTTTTTTTTTTTTTTTTTTTTTT FDIK        TELAPSE      352.45 TCPU      335.07
 MMMMM FDIK        USED MEM(MB)     65.42 MAX MEM     76.34 TOT MEM      2093.49

    ALPHA      ELECTRONS
 INSULATING STATE
 TOP OF VALENCE BANDS -    BAND     60; K  458; EIG -8.6189304E-02 AU
 TOP OF VALENCE BANDS -    BAND     60; K    1; EIG -1.0677776E-01 AU
 BOTTOM OF VIRTUAL BANDS - BAND     61; K  458; EIG -8.4620241E-02 AU
 DIRECT ENERGY BAND GAP:   0.0427 eV
 BOTTOM OF VIRTUAL BANDS - BAND     61; K    1; EIG -6.7582613E-02 AU

    BETA       ELECTRONS
 INSULATING STATE
 TOP OF VALENCE BANDS -    BAND     60; K  458; EIG -8.6189304E-02 AU
 TOP OF VALENCE BANDS -    BAND     60; K    1; EIG -1.0677776E-01 AU
 BOTTOM OF VIRTUAL BANDS - BAND     61; K  458; EIG -8.4620241E-02 AU
 DIRECT ENERGY BAND GAP:   0.0427 eV
 BOTTOM OF VIRTUAL BANDS - BAND     61; K    1; EIG -6.7582613E-02 AU
 TTTTTTTTTTTTTTTTTTTTTTTTTTTTTT PDIG        TELAPSE      353.43 TCPU      336.04
 MMMMM PDIG        USED MEM(MB)     61.05 MAX MEM     68.19 TOT MEM      1953.55
 CHARGE NORMALIZATION FACTOR   1.00000000
 TOTAL ATOMIC CHARGES:
   5.8433511   5.8433511   6.1970547   6.1970547   6.0680189   6.0680189
   5.9537539   5.9537539   5.9129453   5.9129453   5.8098559   5.8098559
   6.0181791   6.0181791   5.9513217   5.9513217   5.9921091   5.9921091
   6.2534103   6.2534103
 SUMMED SPIN DENSITY           0.00000000
 TOTAL ATOMIC SPINS  :
  -0.0000000  -0.0000000   0.0000000   0.0000000  -0.0000000  -0.0000000
   0.0000000   0.0000000  -0.0000000  -0.0000000   0.0000000   0.0000000
  -0.0000000  -0.0000000  -0.0000000  -0.0000000   0.0000000   0.0000000
  -0.0000000  -0.0000000
 TTTTTTTTTTTTTTTTTTTTTTTTTTTTTT MOQGAD      TELAPSE      353.44 TCPU      336.05
 MMMMM MOQGAD      USED MEM(MB)     61.08 MAX MEM     61.60 TOT MEM      1954.65
 TTTTTTTTTTTTTTTTTTTTTTTTTTTTTT SHELLXN     TELAPSE      374.82 TCPU      357.42
 MMMMM SHELLXN     USED MEM(MB)     62.64 MAX MEM     78.16 TOT MEM      2004.56
 +++ ENERGIES IN A.U. +++
 ::: EXT EL-POLE                                  -3.0360387307060E+03
 ::: EXT EL-SPHEROPOLE                             2.9018523747219E+01
 ::: BIELET ZONE E-E                               3.2099340869113E+03
 ::: TOTAL E-E                                     2.0291387995254E+02
 ::: TOTAL E-N + N-E                              -1.3957520204679E+03
 ::: TOTAL N-N                                    -2.1830367971689E+02
 ::: KINETIC ENERGY                                7.5853451194619E+02
 ::: PSEUDO TOTAL   ENERGY                        -6.5260730828601E+02
 ::: VIRIAL COEFFICIENT                            1.0750648886890E+00
 TTTTTTTTTTTTTTTTTTTTTTTTTTTTTT MONMO3      TELAPSE      375.00 TCPU      357.61
 MMMMM MONMO3      USED MEM(MB)     62.64 MAX MEM     62.64 TOT MEM      2004.56
 NUMERICALLY INTEGRATED DENSITY     60.0000084196     60.0000084196
 EXCHANGE ENERGY: -0.103884566870E+03  CORRELATION ENERGY: -0.441346535294E+01
 TTTTTTTTTTTTTTTTTTTTTTTTTTTTTT NUMDFT      TELAPSE      377.39 TCPU      359.99
 MMMMM NUMDFT      USED MEM(MB)     62.64 MAX MEM     75.45 TOT MEM      2004.55
 CYC   9 ETOT(AU) -7.609053405088E+02 DETOT  9.22E-09 tst  5.12E-09 PX  2.56E-04

 == SCF ENDED - CONVERGENCE ON ENERGY      E(AU) -7.6090534050882E+02 CYCLES   9


 ENERGY EXPRESSION=HARTREE+FOCK EXCH*0.00000+(PBE        EXCH)*1.00000+PBE        CORR


 TOTAL ENERGY(DFT)(AU)(  9) -7.6090534050882E+02 DE 9.2E-09 tester 5.1E-09
 TTTTTTTTTTTTTTTTTTTTTTTTTTTTTT EDFT        TELAPSE      377.39 TCPU      359.99
 MMMMM EDFT        USED MEM(MB)     52.46 MAX MEM     62.64 TOT MEM      1678.85

 *******************************************************************************
 *                             FORCE CALCULATION                               *
 *******************************************************************************

 TTTTTTTTTTTTTTTTTTTTTTTTTTTTTT NUMDFG      TELAPSE      392.43 TCPU      375.03
 MMMMM NUMDFG      USED MEM(MB)     46.12 MAX MEM     67.67 TOT MEM      1475.86
 INFORMATION **** EXCPOG **** EXCH. BIPO BUFFER LENGTH (WORDS) =           0
 INFORMATION **** GENPOG **** BIPO BUFFER LENGTH (WORDS) =     4075400
 TTTTTTTTTTTTTTTTTTTTTTTTTTTTTT SHELXG      TELAPSE      509.64 TCPU      492.20
 MMMMM SHELXG      USED MEM(MB)     46.12 MAX MEM    109.27 TOT MEM      1475.86


 D3 DISPERSION ENERGY (AU)       -1.1757822666770E-01
 TOTAL ENERGY + DISP (AU)        -7.6102291873548E+02

 CARTESIAN FORCES IN HARTREE/BOHR (ANALYTICAL)
   ATOM                     X                   Y                   Z
   1   6            -6.827802008003E-04 -4.492946836971E-03 -9.841172959195E-04
   2   6             6.827802007905E-04  4.492946836970E-03  9.841172959222E-04
   3   6             1.146367050167E-03 -3.447408091448E-04 -1.781391244454E-03
   4   6            -1.146367050160E-03  3.447408091428E-04  1.781391244444E-03
   5   6             2.279810760939E-03 -1.019833525548E-03 -2.196548868223E-03
   6   6            -2.279810760950E-03  1.019833525548E-03  2.196548868219E-03
   7   6            -3.263005448091E-03  3.848830505899E-04 -2.046767403955E-03
   8   6             3.263005448082E-03 -3.848830505948E-04  2.046767403949E-03
   9   6            -9.039787156162E-04 -9.925456884474E-05 -2.494950678742E-03
  10   6             9.039787156189E-04  9.925456883786E-05  2.494950678741E-03
  11   6             4.609585200999E-03 -2.280656744668E-03 -5.504330643861E-03
  12   6            -4.609585200999E-03  2.280656744672E-03  5.504330643854E-03
  13   6            -1.383435849337E-03 -1.640716894144E-03  2.405461464249E-03
  14   6             1.383435849347E-03  1.640716894144E-03 -2.405461464248E-03
  15   6             3.247772647736E-04 -5.569810020373E-03  1.480175002844E-03
  16   6            -3.247772647715E-04  5.569810020382E-03 -1.480175002845E-03
  17   6            -6.481314382651E-04  1.986145854852E-03  2.932433384391E-03
  18   6             6.481314382705E-04 -1.986145854852E-03 -2.932433384380E-03
  19   6            -6.127327373817E-04 -1.835375156475E-03 -1.151024677959E-03
  20   6             6.127327373826E-04  1.835375156478E-03  1.151024677972E-03

 RESULTANT FORCE    -1.387778780781E-15  2.220446049250E-16 -1.221245327088E-15

 ATOMIC PART

 SYMMETRY ALLOWED FORCES (ANALYTICAL) (DIRECTION, FORCE)

    1 -3.4805780E-03    2 -5.4028786E-03    3 -1.3917520E-03    4  1.2798704E-03
    5 -1.1081241E-03    6 -2.5192677E-03    7  2.3519322E-03    8 -2.6350731E-03
    9 -3.1063892E-03   10 -3.9880574E-03   11  2.3845496E-03   12 -2.8945662E-03
   13 -1.2239634E-03   14  3.9493236E-04   15 -3.5283931E-03   16  4.6289104E-03
   17 -5.6100383E-03   18 -7.7842990E-03   19 -2.7345223E-03   20 -1.3168452E-03
   21  3.4018362E-03   22 -2.8034184E-03   23 -7.3754575E-03   24  2.0932836E-03
   25  3.1274498E-04   26  2.9380078E-03   27  4.1470871E-03   28 -1.8525934E-03
   29 -2.0139475E-03   30 -1.6277947E-03

 CELL PART

 GRADIENT WITH RESPECT TO THE CELL PARAMETER IN HARTREE/BOHR
ORDER: -D/DA1X, -D/DA1Y, -D/DA1Z
       -D/DA2X, -D/DA2Y, -D/DA2Z
       -D/DA3X, -D/DA3Y, -D/DA3Z
  0.192577259824E-01  0.106840690364E-01 -0.198808227196E-02
  0.161172522833E-02  0.329955279107E-01 -0.219153920023E-02
  0.371844188798E-03 -0.173996288373E-02  0.191214891472E-01

STRESS TENSOR, IN HARTREE/BOHR^3:
ORDER: 11 12 13
       21 22 23
       31 32 33
 -0.183150302799E-03 -0.990814850878E-04 -0.438670032830E-05
 -0.993874787471E-04 -0.392042247238E-03  0.205265968468E-04
 -0.297851226834E-05  0.220364919583E-04 -0.225579006601E-03

STRESS TENSOR DOES NOT CORRESPOND TO
HYDROSTATIC PRESSURE, NO PRESSURE COMPUTED!

 SYMMETRY ALLOWED FORCES (ANALYTICAL) (DIRECTION, FORCE)

    1  3.1755626E-02    2 -6.9949793E-03    3  1.0969250E-02    4  8.1463643E-03
    5  3.2088016E-04    6 -2.0829489E-03
 TTTTTTTTTTTTTTTTTTTTTTTTTTTTTT TOTGRA      TELAPSE      516.53 TCPU      499.09
 MMMMM TOTGRA      USED MEM(MB)     46.10 MAX MEM     55.40 TOT MEM      1475.10
 INFORMATION **** optc0001 **** GEOMETRY OUTPUT FILE
 CLASSICAL MODEL (SCHLEGEL) USED AS INITIAL HESSIAN MATRIX
 REFERENCE GEOMETRY DEFINED

 MAX GRADIENT      0.031756  THRESHOLD              0.000450 CONVERGED NO
 RMS GRADIENT      0.006675  THRESHOLD              0.000300 CONVERGED NO

 GRADIENT NORM     0.040051  GRADIENT THRESHOLD     0.500000

 EIGENVALUES OF THE ESTIMATED HESSIAN
  0.1086E-01  0.4327E-01  0.5493E-01  0.7389E-01  0.8290E-01  0.8971E-01
  0.9817E-01  0.1115      0.1342      0.1469      0.1687      0.1789    
  0.2202      0.2300      0.2460      0.2646      0.3170      0.3556    
  0.4135      0.4530      0.4711      0.5373      0.5717      0.6008    
  0.6757      0.7356      0.8205      0.8954      0.9937       1.012    
   1.065       1.104       1.122       1.152       1.206       1.327    

 INITIAL TRUST RADIUS    0.5000000000E+00

 PREDICTED ENERGY CHANGE    -0.673E-02

 INITIAL DISPLACEMENTS
  0.035594 -0.051467  0.012749  0.043247 -0.003721 -0.009252  0.065684 -0.171896
 -0.015733 -0.042974  0.099652 -0.005372 -0.007747 -0.022006  0.020256  0.036721
 -0.070728  0.001220  0.018551  0.049370 -0.018081  0.016003 -0.000389 -0.036037
 -0.012211  0.010338  0.010382  0.019956 -0.017805 -0.018160  0.281986 -0.128863
  0.093613  0.093278  0.067639 -0.102681
 TTTTTTTTTTTTTTTTTTTTTTTTTTTTTT OPTI        TELAPSE      516.58 TCPU      499.14
 MMMMM OPTI        USED MEM(MB)     40.51 MAX MEM     46.10 TOT MEM      1296.35

 OPTOPTOPTOPTOPTOPTOPTOPTOPTOPTOPTOPTOPTOPTOPTOPTOPTOPTOPTOPTOPTOPTOPTOPTOPTOPT

 - INFORMATION ON SCF MOVED TO SCFOUT.LOG
 GEOMETRY OPTIMIZATION INFORMATION STORED IN OPTINFO.DAT

 OPTOPTOPTOPTOPTOPTOPTOPTOPTOPTOPTOPTOPTOPTOPTOPTOPTOPTOPTOPTOPTOPTOPTOPTOPTOPT
 *******************************************************************************
 COORDINATE AND CELL OPTIMIZATION - POINT    2
 *******************************************************************************
 LATTICE PARAMETERS (ANGSTROMS AND DEGREES) - BOHR = 0.5291772083 ANGSTROM
 PRIMITIVE CELL - CENTRING CODE 1/0 VOLUME=   141.500724 - DENSITY  2.816 g/cm^3
         A              B              C           ALPHA      BETA       GAMMA 
     5.12598076     5.24049149     5.84705418    88.127291  83.899184  64.972812
 *******************************************************************************
 ATOMS IN THE ASYMMETRIC UNIT   10 - ATOMS IN THE UNIT CELL:   20
     ATOM                 X/A                 Y/B                 Z/C    
 *******************************************************************************
      1 T   6 C     4.958915887556E-01 -3.611907632777E-01  2.735796239405E-01
      2 F   6 C    -4.958915887556E-01  3.611907632777E-01 -2.735796239405E-01
      3 T   6 C     2.889585327190E-01 -1.250782006045E-01  4.311479413903E-01
      4 F   6 C    -2.889585327190E-01  1.250782006045E-01 -4.311479413903E-01
      5 T   6 C    -3.664675066054E-01 -1.829552258223E-01  1.247861760465E-01
      6 F   6 C     3.664675066054E-01  1.829552258223E-01 -1.247861760465E-01
      7 T   6 C     3.730208248001E-01  1.729312207455E-01  1.380503912951E-01
      8 F   6 C    -3.730208248001E-01 -1.729312207455E-01 -1.380503912951E-01
      9 T   6 C     1.292577590970E-01  1.522337045386E-01  3.195781864021E-01
     10 F   6 C    -1.292577590970E-01 -1.522337045386E-01 -3.195781864021E-01
     11 T   6 C    -1.274373591806E-01 -1.764207636431E-01  2.528693729450E-01
     12 F   6 C     1.274373591806E-01  1.764207636431E-01 -2.528693729450E-01
     13 T   6 C     1.606670738293E-01 -1.193872778816E-01 -3.091566265637E-01
     14 F   6 C    -1.606670738293E-01  1.193872778816E-01  3.091566265637E-01
     15 T   6 C     4.766667083669E-01 -3.391344963682E-01 -2.599051388856E-01
     16 F   6 C    -4.766667083669E-01  3.391344963682E-01  2.599051388856E-01
     17 T   6 C     1.042049584785E-01  3.438569626428E-01 -4.810444195622E-01
     18 F   6 C    -1.042049584785E-01 -3.438569626428E-01  4.810444195622E-01
     19 T   6 C    -4.058650461903E-01 -3.103342340670E-01  4.946582484976E-01
     20 F   6 C     4.058650461903E-01  3.103342340670E-01 -4.946582484976E-01

 T = ATOM BELONGING TO THE ASYMMETRIC UNIT

 TOTAL ENERGY(DFT)(AU)(  8) -7.6102292575109E+02     DE (AU)   -7.016E-06

 UPDATED TRUST RADIUS     0.110E+00

 SYMMETRY ALLOWED FORCES  (COORDINATE, FORCE)

    1  3.2599516E-03    2 -1.4122922E-03    3 -1.6217953E-03    4  3.2219774E-03
    5  6.6011221E-03    6 -3.8133847E-03    7 -1.9627420E-03    8  2.4714477E-02
    9 -3.1437108E-03   10  1.9253605E-03   11 -1.8733449E-02   12  2.0395219E-03
   13  2.4902773E-03   14  1.6497228E-03   15 -7.2784173E-04   16 -4.0426773E-03
   17  5.6461049E-04   18 -7.2640536E-03   19 -1.6782082E-03   20  2.6496087E-03
   21 -8.2527281E-06   22  1.3019433E-03   23  7.7799028E-04   24 -2.4528804E-03
   25  2.2402781E-03   26 -9.2727059E-03   27  5.1234084E-04   28 -2.4017227E-03
   29 -2.5321198E-03   30  5.5954253E-03   31 -2.0062642E-02   32  5.1447293E-04
   33  4.2569312E-03   34 -4.4265971E-03   35 -3.9370515E-03   36 -2.7846159E-04

 GRADIENT NORM     0.041892  GRADIENT THRESHOLD     0.500000

 EIGENVALUES OF THE ESTIMATED HESSIAN
  0.1099E-01  0.5158E-01  0.6181E-01  0.7216E-01  0.8468E-01  0.9348E-01
  0.1031      0.1294      0.1332      0.1500      0.1704      0.1812    
  0.2234      0.2409      0.2426      0.2677      0.3177      0.3531    
  0.4130      0.4528      0.4719      0.5432      0.5718      0.6009    
  0.6748      0.7352      0.8221      0.8952      0.9952       1.013    
   1.063       1.104       1.123       1.154       1.206       1.327    
 NEWTON STEP ( 0.2613685051E+00) EXCEEDS TRUST RADIUS ( 0.1101272884E+00)
 LEVEL SHIFT     0.4069074448E-02

 PREDICTED ENERGY CHANGE    -0.285E-02

 MAX GRADIENT      0.024714  THRESHOLD              0.000450 CONVERGED NO
 RMS GRADIENT      0.006982  THRESHOLD              0.000300 CONVERGED NO
 MAX DISPLAC.      0.069154  THRESHOLD              0.001800 CONVERGED NO
 RMS DISPLAC.      0.018355  THRESHOLD              0.001200 CONVERGED NO
 TTTTTTTTTTTTTTTTTTTTTTTTTTTTTT OPTI        TELAPSE      995.10 TCPU      960.67
 MMMMM OPTI        USED MEM(MB)     53.02 MAX MEM     58.61 TOT MEM      1696.78
 *******************************************************************************
 COORDINATE AND CELL OPTIMIZATION - POINT    3
 *******************************************************************************
 LATTICE PARAMETERS (ANGSTROMS AND DEGREES) - BOHR = 0.5291772083 ANGSTROM
 PRIMITIVE CELL - CENTRING CODE 1/0 VOLUME=   140.907307 - DENSITY  2.828 g/cm^3
         A              B              C           ALPHA      BETA       GAMMA 
     5.12637266     5.23101650     5.83517765    87.968755  83.963067  64.899829
 *******************************************************************************
 ATOMS IN THE ASYMMETRIC UNIT   10 - ATOMS IN THE UNIT CELL:   20
     ATOM                 X/A                 Y/B                 Z/C    
 *******************************************************************************
      1 T   6 C     4.947278298462E-01 -3.596345786563E-01  2.730127765338E-01
      2 F   6 C    -4.947278298462E-01  3.596345786563E-01 -2.730127765338E-01
      3 T   6 C     2.881907722118E-01 -1.246506136359E-01  4.312397253188E-01
      4 F   6 C    -2.881907722118E-01  1.246506136359E-01 -4.312397253188E-01
      5 T   6 C    -3.705347681804E-01 -1.774305855854E-01  1.244898457790E-01
      6 F   6 C     3.705347681804E-01  1.774305855854E-01 -1.244898457790E-01
      7 T   6 C     3.753979911908E-01  1.699863108532E-01  1.385819191881E-01
      8 F   6 C    -3.753979911908E-01 -1.699863108532E-01 -1.385819191881E-01
      9 T   6 C     1.294345948373E-01  1.528331602500E-01  3.193384199604E-01
     10 F   6 C    -1.294345948373E-01 -1.528331602500E-01 -3.193384199604E-01
     11 T   6 C    -1.287514995528E-01 -1.749849539078E-01  2.516790997271E-01
     12 F   6 C     1.287514995528E-01  1.749849539078E-01 -2.516790997271E-01
     13 T   6 C     1.604353513213E-01 -1.202732268616E-01 -3.086115421856E-01
     14 F   6 C    -1.604353513213E-01  1.202732268616E-01  3.086115421856E-01
     15 T   6 C     4.765127258757E-01 -3.396652321286E-01 -2.592991405403E-01
     16 F   6 C    -4.765127258757E-01  3.396652321286E-01  2.592991405403E-01
     17 T   6 C     1.048765653182E-01  3.435773786338E-01 -4.807911288329E-01
     18 F   6 C    -1.048765653182E-01 -3.435773786338E-01  4.807911288329E-01
     19 T   6 C    -4.064602599950E-01 -3.104325398686E-01  4.947646167893E-01
     20 F   6 C     4.064602599950E-01  3.104325398686E-01 -4.947646167893E-01

 T = ATOM BELONGING TO THE ASYMMETRIC UNIT

 TOTAL ENERGY(DFT)(AU)(  7) -7.6102579076195E+02     DE (AU)   -2.865E-03

 UPDATED TRUST RADIUS     0.220E+00

 SYMMETRY ALLOWED FORCES  (COORDINATE, FORCE)

    1  1.7231045E-03    2 -2.3857826E-03    3 -8.4118502E-04    4  2.0830216E-03
    5  4.1258316E-03    6 -1.7676543E-03    7 -2.7475365E-04    8  1.5722253E-02
    9  9.4400971E-04   10  3.5891253E-04   11 -1.3647228E-02   12  4.9292273E-04
   13  9.2907197E-04   14  1.6684750E-03   15  8.5499101E-04   16 -5.1894537E-04
   17 -5.0199187E-04   18 -2.2327940E-03   19 -1.7292481E-04   20  2.1042281E-03
   21 -5.2276169E-04   22  4.0391079E-04   23 -1.0841042E-03   24 -2.8076584E-03
   25  1.2192945E-03   26 -7.0758380E-03   27  4.2450012E-04   28 -6.4718696E-04
   29 -2.2653162E-03   30  4.1859150E-03   31 -1.4447265E-02   32  6.1268899E-04
   33  3.9098848E-04   34 -3.4860367E-03   35 -1.7203018E-03   36 -9.5547348E-04

 GRADIENT NORM     0.028152  GRADIENT THRESHOLD     0.500000

 EIGENVALUES OF THE ESTIMATED HESSIAN
  0.1181E-01  0.5249E-01  0.6001E-01  0.7418E-01  0.8680E-01  0.9528E-01
  0.1012      0.1296      0.1336      0.1388      0.1651      0.1780    
  0.2217      0.2398      0.2478      0.2644      0.3161      0.3631    
  0.4141      0.4538      0.4749      0.5403      0.5736      0.6023    
  0.6758      0.7366      0.8201      0.8955      0.9948       1.004    
   1.062       1.104       1.121       1.156       1.206       1.327    
 NEWTON STEP ( 0.3544197333E+00) EXCEEDS TRUST RADIUS ( 0.2202545767E+00)
 LEVEL SHIFT    -0.3375088587E-02

 PREDICTED ENERGY CHANGE    -0.269E-02

 MAX GRADIENT      0.015722  THRESHOLD              0.000450 CONVERGED NO
 RMS GRADIENT      0.004692  THRESHOLD              0.000300 CONVERGED NO
 MAX DISPLAC.      0.122702  THRESHOLD              0.001800 CONVERGED NO
 RMS DISPLAC.      0.036709  THRESHOLD              0.001200 CONVERGED NO
 TTTTTTTTTTTTTTTTTTTTTTTTTTTTTT OPTI        TELAPSE     1435.10 TCPU     1394.13
 MMMMM OPTI        USED MEM(MB)     63.98 MAX MEM     69.56 TOT MEM      2047.30
 *******************************************************************************
 COORDINATE AND CELL OPTIMIZATION - POINT    4
 *******************************************************************************
 LATTICE PARAMETERS (ANGSTROMS AND DEGREES) - BOHR = 0.5291772083 ANGSTROM
 PRIMITIVE CELL - CENTRING CODE 1/0 VOLUME=   139.234530 - DENSITY  2.862 g/cm^3
         A              B              C           ALPHA      BETA       GAMMA 
     5.11092495     5.19934606     5.81491183    88.382475  83.780791  65.035459
 *******************************************************************************
 ATOMS IN THE ASYMMETRIC UNIT   10 - ATOMS IN THE UNIT CELL:   20
     ATOM                 X/A                 Y/B                 Z/C    
 *******************************************************************************
[...]
                  6 C    (  0  0  0)     2.902     1.536     0.221
                  9 C    (  0  0  0)     2.990     1.582     0.228
                 16 C    (  1  0  0)     3.047     1.613     0.305
                  5 C    (  1  0  0)     3.159     1.671     0.363
                  8 C    (  1  0  0)     4.262     2.255    -0.090
                 20 C    (  1  0  0)     4.393     2.325    -0.077

 ATOM A   9 C    ATOM B     CELL      R(AB)/AU R(AB)/ANG    OVPOP(AB)
                  3 C    (  0  0  0)     2.816     1.490     0.328
                 17 C    (  0  0  1)     2.864     1.516     0.348
                 14 C    (  0  0  0)     2.958     1.565     0.316
                  7 C    (  0  0  0)     2.990     1.582     0.228
                 20 C    (  1  0  0)     4.315     2.283    -0.028
                  4 C    (  0  0  1)     4.735     2.506    -0.053

 ATOM A  11 C    ATOM B     CELL      R(AB)/AU R(AB)/ANG    OVPOP(AB)
                  5 C    (  0  0  0)     2.858     1.512     0.357
                 14 C    (  0  0  0)     2.876     1.522     0.410
                 18 C    (  0  0  0)     2.946     1.559     0.296
                 19 C    ( -1  0  1)     4.189     2.217     0.002
                  4 C    (  0  0  1)     4.359     2.307    -0.073
                  1 C    ( -1  0  0)     4.694     2.484    -0.036

 ATOM A  13 C    ATOM B     CELL      R(AB)/AU R(AB)/ANG    OVPOP(AB)
                 12 C    (  0  0  0)     2.876     1.522     0.410
                 10 C    (  0  0  0)     2.958     1.565     0.316
                  3 C    (  0  0 -1)     2.990     1.582     0.248
                 15 C    (  0  0  0)     2.993     1.584     0.264
                 19 C    (  0  0  0)     4.178     2.211    -0.030
                  4 C    (  0  0  0)     4.301     2.276    -0.052

 ATOM A  15 C    ATOM B     CELL      R(AB)/AU R(AB)/ANG    OVPOP(AB)
                  2 C    (  1 -1  0)     2.863     1.515     0.290
                 19 C    (  0  0  0)     2.873     1.521     0.321
                 13 C    (  0  0  0)     2.993     1.584     0.264
                  8 C    (  1  0  0)     3.047     1.613     0.305
                  3 C    (  0  0 -1)     4.111     2.176    -0.070
                 20 C    (  1 -1 -1)     4.686     2.480    -0.043

 ATOM A  17 C    ATOM B     CELL      R(AB)/AU R(AB)/ANG    OVPOP(AB)
                 20 C    (  1  0 -1)     2.779     1.470     0.278
                  9 C    (  0  0 -1)     2.864     1.516     0.348
                 18 C    (  0  1 -1)     2.940     1.556     0.256
                 12 C    (  0  0  0)     2.946     1.559     0.296
                  3 C    (  0  0 -1)     4.277     2.263    -0.082
                  7 C    (  0  0 -1)     4.672     2.472    -0.027

 ATOM A  19 C    ATOM B     CELL      R(AB)/AU R(AB)/ANG    OVPOP(AB)
                 18 C    (  1  0 -1)     2.779     1.470     0.278
                  1 C    (  0  0 -1)     2.845     1.505     0.353
                 15 C    (  0  0  0)     2.873     1.521     0.321
                  3 C    (  0  0 -1)     2.883     1.526     0.102
                 13 C    (  0  0  0)     4.178     2.211    -0.030
                 11 C    (  1  0 -1)     4.189     2.217     0.002
 TTTTTTTTTTTTTTTTTTTTTTTTTTTTTT AFTER FIRST TELAPSE     3873.40 TCPU     3786.01
 MMMMM AFTER FIRST USED MEM(MB)    134.13 MAX MEM    134.13 TOT MEM      4292.24
 MMMMMMMMMMMMMMMMMMMMMMMMMMMMMMMMMMMMMMMMMMMMMMMMMMMMMMMMMMMMMMMMMMMMMMMMMMMMMMM
     ALPHA-BETA ELECTRONS
 MULLIKEN POPULATION ANALYSIS - NO. OF ELECTRONS    0.000000

  ATOM    Z CHARGE  A.O. POPULATION

   1 C    6  0.000  0.000 -0.000 -0.000  0.000 -0.000 -0.000 -0.000 -0.000
                    0.000  0.000  0.000 -0.000  0.000  0.000 -0.000  0.000
                    0.000 -0.000
   2 C    6  0.000  0.000 -0.000 -0.000  0.000 -0.000 -0.000 -0.000 -0.000
                    0.000  0.000  0.000 -0.000  0.000  0.000 -0.000  0.000
                    0.000 -0.000
   3 C    6 -0.000  0.000  0.000 -0.000  0.000 -0.000  0.000 -0.000 -0.000
                    0.000  0.000 -0.000 -0.000 -0.000  0.000 -0.000  0.000
                   -0.000  0.000
   4 C    6 -0.000  0.000  0.000 -0.000  0.000 -0.000  0.000 -0.000 -0.000
                    0.000  0.000 -0.000 -0.000 -0.000  0.000 -0.000  0.000
                   -0.000  0.000
   5 C    6 -0.000 -0.000  0.000 -0.000 -0.000 -0.000 -0.000 -0.000 -0.000
                   -0.000 -0.000  0.000  0.000  0.000  0.000 -0.000  0.000
                   -0.000  0.000
   6 C    6 -0.000 -0.000  0.000 -0.000 -0.000 -0.000 -0.000 -0.000 -0.000
                   -0.000 -0.000  0.000  0.000  0.000  0.000 -0.000  0.000
                   -0.000  0.000
   7 C    6 -0.000  0.000 -0.000  0.000 -0.000 -0.000 -0.000 -0.000 -0.000
                   -0.000  0.000  0.000 -0.000 -0.000 -0.000 -0.000 -0.000
                   -0.000 -0.000
   8 C    6 -0.000  0.000 -0.000  0.000 -0.000 -0.000 -0.000 -0.000 -0.000
                   -0.000  0.000  0.000 -0.000 -0.000 -0.000 -0.000 -0.000
                   -0.000 -0.000
   9 C    6  0.000  0.000  0.000 -0.000  0.000  0.000 -0.000  0.000 -0.000
                    0.000  0.000  0.000  0.000  0.000  0.000 -0.000  0.000
                   -0.000 -0.000
  10 C    6  0.000  0.000  0.000 -0.000  0.000  0.000 -0.000  0.000 -0.000
                    0.000  0.000  0.000  0.000  0.000  0.000 -0.000  0.000
                   -0.000 -0.000
  11 C    6 -0.000  0.000 -0.000  0.000 -0.000  0.000  0.000 -0.000  0.000
                    0.000  0.000  0.000  0.000  0.000  0.000 -0.000  0.000
                    0.000  0.000
  12 C    6 -0.000  0.000 -0.000  0.000 -0.000  0.000  0.000 -0.000  0.000
                    0.000  0.000  0.000  0.000  0.000  0.000 -0.000  0.000
                    0.000  0.000
  13 C    6  0.000  0.000 -0.000 -0.000 -0.000  0.000 -0.000  0.000  0.000
                   -0.000  0.000 -0.000  0.000  0.000 -0.000  0.000  0.000
                   -0.000  0.000
  14 C    6  0.000  0.000 -0.000 -0.000 -0.000  0.000 -0.000  0.000  0.000
                   -0.000  0.000 -0.000  0.000  0.000 -0.000  0.000  0.000
                   -0.000  0.000
  15 C    6  0.000  0.000  0.000 -0.000  0.000 -0.000 -0.000 -0.000 -0.000
                   -0.000 -0.000  0.000  0.000  0.000  0.000  0.000  0.000
                   -0.000  0.000
  16 C    6  0.000  0.000  0.000 -0.000  0.000 -0.000 -0.000 -0.000 -0.000
                   -0.000 -0.000  0.000  0.000  0.000  0.000  0.000  0.000
                   -0.000  0.000
  17 C    6 -0.000  0.000 -0.000  0.000 -0.000 -0.000  0.000  0.000  0.000
                    0.000  0.000 -0.000 -0.000  0.000  0.000  0.000  0.000
                   -0.000 -0.000
  18 C    6 -0.000  0.000 -0.000  0.000 -0.000 -0.000  0.000  0.000  0.000
                    0.000  0.000 -0.000 -0.000  0.000  0.000  0.000  0.000
                   -0.000 -0.000
  19 C    6 -0.000  0.000 -0.000 -0.000 -0.000 -0.000 -0.000 -0.000  0.000
                   -0.000 -0.000  0.000 -0.000 -0.000 -0.000 -0.000 -0.000
                    0.000  0.000
  20 C    6 -0.000  0.000 -0.000 -0.000 -0.000 -0.000 -0.000 -0.000  0.000
                   -0.000 -0.000  0.000 -0.000 -0.000 -0.000 -0.000 -0.000
                    0.000  0.000

  ATOM    Z CHARGE  SHELL POPULATION

   1 C    6  0.000  0.000 -0.000 -0.000  0.000 -0.000  0.000  0.000 -0.000
   2 C    6  0.000  0.000 -0.000 -0.000  0.000 -0.000  0.000  0.000 -0.000
   3 C    6 -0.000  0.000  0.000 -0.000  0.000 -0.000  0.000 -0.000 -0.000
   4 C    6 -0.000  0.000  0.000 -0.000  0.000 -0.000  0.000 -0.000 -0.000
   5 C    6 -0.000 -0.000  0.000 -0.000 -0.000 -0.000 -0.000  0.000  0.000
   6 C    6 -0.000 -0.000  0.000 -0.000 -0.000 -0.000 -0.000  0.000  0.000
   7 C    6 -0.000  0.000 -0.000  0.000 -0.000 -0.000 -0.000 -0.000 -0.000
   8 C    6 -0.000  0.000 -0.000  0.000 -0.000 -0.000 -0.000 -0.000 -0.000
   9 C    6  0.000  0.000  0.000 -0.000  0.000  0.000 -0.000  0.000 -0.000
  10 C    6  0.000  0.000  0.000 -0.000  0.000  0.000 -0.000  0.000 -0.000
  11 C    6 -0.000  0.000 -0.000  0.000 -0.000  0.000  0.000  0.000  0.000
  12 C    6 -0.000  0.000 -0.000  0.000 -0.000  0.000  0.000  0.000  0.000
  13 C    6  0.000  0.000 -0.000 -0.000 -0.000  0.000  0.000  0.000 -0.000
  14 C    6  0.000  0.000 -0.000 -0.000 -0.000  0.000  0.000  0.000 -0.000
  15 C    6  0.000  0.000  0.000 -0.000  0.000 -0.000 -0.000  0.000  0.000
  16 C    6  0.000  0.000  0.000 -0.000  0.000 -0.000 -0.000  0.000  0.000
  17 C    6 -0.000  0.000 -0.000  0.000 -0.000  0.000  0.000 -0.000 -0.000
  18 C    6 -0.000  0.000 -0.000  0.000 -0.000  0.000  0.000 -0.000 -0.000
  19 C    6 -0.000  0.000 -0.000 -0.000 -0.000 -0.000 -0.000 -0.000 -0.000
  20 C    6 -0.000  0.000 -0.000 -0.000 -0.000 -0.000 -0.000 -0.000 -0.000

 OVERLAP POPULATION CONDENSED TO ATOMS FOR FIRST   6 NEIGHBORS

 ATOM A   1 C    ATOM B     CELL      R(AB)/AU R(AB)/ANG    OVPOP(AB)
                  3 C    (  0  0  0)     2.834     1.500    -0.000
                 19 C    (  0  0  1)     2.845     1.505     0.000
                 16 C    (  1 -1  0)     2.863     1.515     0.000
                  5 C    (  1  0  0)     3.000     1.587    -0.000
                 20 C    (  1 -1  0)     4.369     2.312    -0.000
                 11 C    (  1  0  0)     4.694     2.484     0.000

 ATOM A   3 C    ATOM B     CELL      R(AB)/AU R(AB)/ANG    OVPOP(AB)
                  9 C    (  0  0  0)     2.816     1.490    -0.000
                  1 C    (  0  0  0)     2.834     1.500    -0.000
                 19 C    (  0  0  1)     2.883     1.526     0.000
                 13 C    (  0  0  1)     2.990     1.582     0.000
                 15 C    (  0  0  1)     4.111     2.176    -0.000
                 17 C    (  0  0  1)     4.277     2.263     0.000

 ATOM A   5 C    ATOM B     CELL      R(AB)/AU R(AB)/ANG    OVPOP(AB)
                 11 C    (  0  0  0)     2.858     1.512     0.000
                  8 C    (  0  0  0)     2.902     1.536    -0.000
                  1 C    ( -1  0  0)     3.000     1.587    -0.000
                  7 C    ( -1  0  0)     3.159     1.671    -0.000
                 19 C    ( -1  0  1)     4.273     2.261    -0.000
                  6 C    ( -1  0  0)     4.317     2.284     0.000

 ATOM A   7 C    ATOM B     CELL      R(AB)/AU R(AB)/ANG    OVPOP(AB)
                  6 C    (  0  0  0)     2.902     1.536    -0.000
                  9 C    (  0  0  0)     2.990     1.582     0.000
                 16 C    (  1  0  0)     3.047     1.613     0.000
                  5 C    (  1  0  0)     3.159     1.671    -0.000
                  8 C    (  1  0  0)     4.262     2.255     0.000
                 20 C    (  1  0  0)     4.393     2.325    -0.000

 ATOM A   9 C    ATOM B     CELL      R(AB)/AU R(AB)/ANG    OVPOP(AB)
                  3 C    (  0  0  0)     2.816     1.490    -0.000
                 17 C    (  0  0  1)     2.864     1.516     0.000
                 14 C    (  0  0  0)     2.958     1.565     0.000
                  7 C    (  0  0  0)     2.990     1.582     0.000
                 20 C    (  1  0  0)     4.315     2.283     0.000
                  4 C    (  0  0  1)     4.735     2.506    -0.000

 ATOM A  11 C    ATOM B     CELL      R(AB)/AU R(AB)/ANG    OVPOP(AB)
                  5 C    (  0  0  0)     2.858     1.512     0.000
                 14 C    (  0  0  0)     2.876     1.522     0.000
                 18 C    (  0  0  0)     2.946     1.559     0.000
                 19 C    ( -1  0  1)     4.189     2.217     0.000
                  4 C    (  0  0  1)     4.359     2.307    -0.000
                  1 C    ( -1  0  0)     4.694     2.484     0.000

 ATOM A  13 C    ATOM B     CELL      R(AB)/AU R(AB)/ANG    OVPOP(AB)
                 12 C    (  0  0  0)     2.876     1.522     0.000
                 10 C    (  0  0  0)     2.958     1.565     0.000
                  3 C    (  0  0 -1)     2.990     1.582     0.000
                 15 C    (  0  0  0)     2.993     1.584     0.000
                 19 C    (  0  0  0)     4.178     2.211    -0.000
                  4 C    (  0  0  0)     4.301     2.276    -0.000

 ATOM A  15 C    ATOM B     CELL      R(AB)/AU R(AB)/ANG    OVPOP(AB)
                  2 C    (  1 -1  0)     2.863     1.515     0.000
                 19 C    (  0  0  0)     2.873     1.521     0.000
                 13 C    (  0  0  0)     2.993     1.584     0.000
                  8 C    (  1  0  0)     3.047     1.613     0.000
                  3 C    (  0  0 -1)     4.111     2.176    -0.000
                 20 C    (  1 -1 -1)     4.686     2.480    -0.000

 ATOM A  17 C    ATOM B     CELL      R(AB)/AU R(AB)/ANG    OVPOP(AB)
                 20 C    (  1  0 -1)     2.779     1.470    -0.000
                  9 C    (  0  0 -1)     2.864     1.516     0.000
                 18 C    (  0  1 -1)     2.940     1.556    -0.000
                 12 C    (  0  0  0)     2.946     1.559     0.000
                  3 C    (  0  0 -1)     4.277     2.263     0.000
                  7 C    (  0  0 -1)     4.672     2.472    -0.000

 ATOM A  19 C    ATOM B     CELL      R(AB)/AU R(AB)/ANG    OVPOP(AB)
                 18 C    (  1  0 -1)     2.779     1.470    -0.000
                  1 C    (  0  0 -1)     2.845     1.505     0.000
                 15 C    (  0  0  0)     2.873     1.521     0.000
                  3 C    (  0  0 -1)     2.883     1.526     0.000
                 13 C    (  0  0  0)     4.178     2.211    -0.000
                 11 C    (  1  0 -1)     4.189     2.217     0.000
 EIGENVECTORS IN FORTRAN UNIT  8

 FINAL OPTIMIZED GEOMETRY - DIMENSIONALITY OF THE SYSTEM      3
 (NON PERIODIC DIRECTION: LATTICE PARAMETER FORMALLY SET TO 500)
 *******************************************************************************
 LATTICE PARAMETERS (ANGSTROMS AND DEGREES) - BOHR = 0.5291772083 ANGSTROM
 PRIMITIVE CELL - CENTRING CODE 1/0 VOLUME=   139.464540 - DENSITY  2.858 g/cm^3
         A              B              C           ALPHA      BETA       GAMMA 
     5.10867710     5.20902942     5.81711984    87.951159  83.995191  64.950210
 *******************************************************************************
 ATOMS IN THE ASYMMETRIC UNIT   10 - ATOMS IN THE UNIT CELL:   20
     ATOM                 X/A                 Y/B                 Z/C    
 *******************************************************************************
      1 T   6 C     4.944799368128E-01 -3.590221048438E-01  2.722541006121E-01
      2 F   6 C    -4.944799368128E-01  3.590221048438E-01 -2.722541006121E-01
      3 T   6 C     2.880084745996E-01 -1.243348980774E-01  4.314545414158E-01
      4 F   6 C    -2.880084745996E-01  1.243348980774E-01 -4.314545414158E-01
      5 T   6 C    -3.737672280634E-01 -1.714026168579E-01  1.248375070596E-01
      6 F   6 C     3.737672280634E-01  1.714026168579E-01 -1.248375070596E-01
      7 T   6 C     3.780360185989E-01  1.651415198779E-01  1.388880327458E-01
      8 F   6 C    -3.780360185989E-01 -1.651415198779E-01 -1.388880327458E-01
      9 T   6 C     1.294862693522E-01  1.530651692790E-01  3.194367123586E-01
     10 F   6 C    -1.294862693522E-01 -1.530651692790E-01 -3.194367123586E-01
     11 T   6 C    -1.280208557560E-01 -1.745274110502E-01  2.507326826403E-01
     12 F   6 C     1.280208557560E-01  1.745274110502E-01 -2.507326826403E-01
     13 T   6 C     1.598310699703E-01 -1.206059834987E-01 -3.083891717872E-01
     14 F   6 C    -1.598310699703E-01  1.206059834987E-01  3.083891717872E-01
     15 T   6 C     4.759926217560E-01 -3.398957866638E-01 -2.588106255508E-01
     16 F   6 C    -4.759926217560E-01  3.398957866638E-01  2.588106255508E-01
     17 T   6 C     1.052313285057E-01  3.429246720660E-01 -4.804247127415E-01
     18 F   6 C    -1.052313285057E-01 -3.429246720660E-01  4.804247127415E-01
     19 T   6 C    -4.065681155806E-01 -3.110726953013E-01  4.951604090044E-01
     20 F   6 C     4.065681155806E-01  3.110726953013E-01 -4.951604090044E-01

 T = ATOM BELONGING TO THE ASYMMETRIC UNIT
 INFORMATION **** fort.34 **** GEOMETRY OUTPUT FILE

 DIRECT LATTICE VECTORS CARTESIAN COMPONENTS (ANGSTROM)
          X                    Y                    Z
   0.464171469126E+01   0.213379115468E+01  -0.130366722534E-02
   0.328868744916E-01   0.520888672083E+01  -0.201277991812E-01
   0.567148583460E+00   0.226748990966E+00   0.578496418828E+01


 CARTESIAN COORDINATES - PRIMITIVE CELL
 *******************************************************************************
 *      ATOM          X(ANGSTROM)         Y(ANGSTROM)         Z(ANGSTROM)
 *******************************************************************************
    1     6 C     2.437836199840E+00 -7.532552164684E-01  1.581561909694E+00
    2     6 C    -2.437836199840E+00  7.532552164684E-01 -1.581561909694E+00
    3     6 C     1.577463013560E+00  6.473541795523E-02  2.498076191612E+00
    4     6 C    -1.577463013560E+00 -6.473541795523E-02 -2.498076191612E+00
    5     6 C    -1.669756314671E+00 -1.662051241255E+00  7.261177332303E-01
    6     6 C     1.669756314671E+00  1.662051241255E+00 -7.261177332303E-01
    7     6 C     1.838936480826E+00  1.698346103867E+00  7.996455270990E-01
    8     6 C    -1.838936480826E+00 -1.698346103867E+00 -7.996455270990E-01
    9     6 C     7.872402326991E-01  1.146027736079E+00  1.844680269422E+00
   10     6 C    -7.872402326991E-01 -1.146027736079E+00 -1.844680269422E+00
   11     6 C    -4.577732622267E-01 -1.125409900675E+00  1.454159339180E+00
   12     6 C     4.577732622267E-01  1.125409900675E+00 -1.454159339180E+00
   13     6 C     5.630213898258E-01 -3.571037160811E-01 -1.781801148354E+00
   14     6 C    -5.630213898258E-01  3.571037160811E-01  1.781801148354E+00
   15     6 C     2.051459755596E+00 -8.134948518193E-01 -1.490989382202E+00
   16     6 C    -2.051459755596E+00  8.134948518193E-01  1.490989382202E+00
   17     6 C     2.272593288658E-01  1.901861629679E+00 -2.786279263942E+00
   18     6 C    -2.272593288658E-01 -1.901861629679E+00  2.786279263942E+00
   19     6 C     2.457992228577E+00 -4.685545937486E-01 -2.914991383692E+00
   20     6 C    -2.457992228577E+00  4.685545937486E-01  2.914991383692E+00

 ****    2 SYMMOPS - TRANSLATORS IN FRACTIONAL UNITS
 **** MATRICES AND TRANSLATORS IN THE CRYSTALLOGRAPHIC REFERENCE FRAME
   V INV                    ROTATION MATRICES                   TRANSLATORS
   1   1  1.00  0.00  0.00  0.00  1.00  0.00  0.00  0.00  1.00  0.00  0.00  0.00
   2   2 -1.00 -0.00  0.00  0.00 -1.00 -0.00  0.00  0.00 -1.00  0.00  0.00  0.00
 TTTTTTTTTTTTTTTTTTTTTTTTTTTTTT END         TELAPSE     3874.52 TCPU     3786.86
 MMMMM END         USED MEM(MB)    108.09 MAX MEM    134.13 TOT MEM      3459.02
 EEEEEEEEEE TERMINATION  DATE 20 11 2024 TIME 22:52:24.5
NODE    0 CPU TIME =      3786.864
NODE    1 CPU TIME =      3773.356
NODE    2 CPU TIME =      3780.136
NODE    3 CPU TIME =      3779.123
NODE    4 CPU TIME =      3767.435
NODE    5 CPU TIME =      3774.184
NODE    6 CPU TIME =      3778.734
NODE    7 CPU TIME =      3776.991
NODE    8 CPU TIME =      3773.002
NODE    9 CPU TIME =      3777.331
NODE   10 CPU TIME =      3785.094
NODE   11 CPU TIME =      3779.142
NODE   12 CPU TIME =      3775.091
NODE   13 CPU TIME =      3778.160
NODE   14 CPU TIME =      3782.199
NODE   15 CPU TIME =      3778.450
NODE   16 CPU TIME =      3774.761
NODE   17 CPU TIME =      3777.081
NODE   18 CPU TIME =      3769.593
NODE   19 CPU TIME =      3769.652
NODE   20 CPU TIME =      3777.371
NODE   21 CPU TIME =      3762.619
NODE   22 CPU TIME =      3781.047
NODE   23 CPU TIME =      3772.235
NODE   24 CPU TIME =      3779.220
NODE   25 CPU TIME =      3773.310
NODE   26 CPU TIME =      3776.045
NODE   27 CPU TIME =      3774.954
NODE   28 CPU TIME =      3775.308
NODE   29 CPU TIME =      3779.179
NODE   30 CPU TIME =      3775.536
NODE   31 CPU TIME =      3767.988
    TOTAL CPU TIME =    120831.192
