
         
 *******************************************************************************
 *                                                                             *
 *                               CRYSTAL17                                     *
 *                      public : 1.0.2 - March 1st, 2018                       *
 *                       HTTP://WWW.CRYSTAL.UNITO.IT                           *
 *                                                                             *
 *                              MAIN AUTHORS                                   *
 *                                                                             *
 *  R. DOVESI(1,11), V.R. SAUNDERS(2), C. ROETTI(1,11), R. ORLANDO(1,11),      *
 *  C.M. ZICOVICH-WILSON(1,3), F. PASCALE(4), B. CIVALLERI(1,11),              *
 *  K. DOLL(5), N.M. HARRISON(2,6), I.J. BUSH(7), Ph. D'ARCO(8),               *
 *  M. LLUNELL(9), M. CAUSA'(10), Y. NOEL(8), L. MASCHIO(1,11), A. ERBA(1,11)  *
 *  M. RE'RAT(14), S. CASASSA(1,11)                                            *
 *                                                                             *
 *        CONTRIBUTIONS TO THE CODE HAVE ALSO BEEN GIVEN BY                    *
 *                                                                             *
 *  M. FERRABONE(1,11), M. DE LA PIERRE(1,11), M. FERRERO(1,11),               *
 *  J. BAIMA(1,11), E. ALBANESE(1,11), M.F. PEINTINGER(12), R. BAST(13),       *
 *  B. KIRTMAN(15), V. LACIVITA(1,11), R. DEMICHELIS(1,16)                     *
 *  G. BRANDEBURG(17), S. SALUSTRO(1,11), G. SANSONE(1,11)                     *
 *  M.T. RUGGIERO(18)                                                          *
 *                                                                             *
 * (1) THEORETICAL CHEMISTRY GROUP - UNIVERSITA' DI TORINO - TORINO (ITALY)    *
 * (2) COMPUTATIONAL SCIENCE & ENGINEERING DEPARTMENT - STFC DARESBURY (UK)    *
 * (3) UNIVERSIDAD AUTONOMA DEL ESTADO DE MORELOS - CUERNAVACA (MEXICO)        *
 * (4) UNIVERSITE' DE LORRAINE - NANCY (FRANCE)                                *
 * (5) UNIVERSITAET STUTTGART- STUTTGART (GERMANY)                             *
 * (6) IMPERIAL COLLEGE - LONDON (UK)                                          *
 * (7) OXFORD E-RESEARCH CENTRE - OXFORD (UK)                                  *
 * (8) UPMC - SORBONNE UNIVERSITES - PARIS (FRANCE)                            *
 * (9) UNIVERSIDAD DE BARCELONA - BARCELONA (SPAIN)                            *
 *(10) UNIVERSITA' DI NAPOLI "FEDERICO II" - NAPOLI (ITALY)                    *
 *(11) NIS - NANOSTRUCTURED INTERFACES AND SURFACES - TORINO (ITALY)           *
 *(12) MPI FUER CHEMISCHE ENERGIEKONVERSION - MUELHEIM AN DER RUHR (GERMANY)   *
 *(13) UNIVERSITY OF TROMSO - TROMSO (NORWAY)                                  *
 *(14) UNIVERSITE' DE PAU ET DES PAYS DE L'ADOUR - PAU (FRANCE)                *
 *(15) UNIVERSITY OF CALIFORNIA SANTA BARBARA - SANTA BARBARA (USA)            *
 *(16) CURTIN UNIVERSITY - PERTH (AUSTRALIA)                                   *
 *(17) UNIVERSITY COLLEGE LONDON - LONDON (UK)                                 *
 *(18) CAMBRIDGE UNIVERSITY - CAMBRIDGE (UK)                                   *
 *                                                                             *
 *******************************************************************************
 EEEEEEEEEE STARTING  DATE 20 12 2023 TIME 19:33:42.4
 3_dia3_opt                                                                      

 CRYSTAL CALCULATION
 (INPUT ACCORDING TO THE INTERNATIONAL TABLES FOR X-RAY CRYSTALLOGRAPHY)
 CRYSTAL FAMILY                       :  CUBIC       
 CRYSTAL CLASS  (GROTH - 1921)        :  CUBIC HEXAKISOCTAHEDRAL              

 SPACE GROUP (CENTROSYMMETRIC)        :  F D 3 M         

 LATTICE PARAMETERS  (ANGSTROMS AND DEGREES) - CONVENTIONAL CELL
        A           B           C        ALPHA        BETA       GAMMA
     9.54550     9.54550     9.54550    90.00000    90.00000    90.00000


 NUMBER OF IRREDUCIBLE ATOMS IN THE CONVENTIONAL CELL:    2

 INPUT COORDINATES

 ATOM AT. N.              COORDINATES
   1   6     1.250000000000E-01  1.250000000000E-01  1.250000000000E-01
   2   6     3.587000000000E-02  3.587000000000E-02  3.587000000000E-02

 *******************************************************************************

 << INFORMATION >>: FROM NOW ON, ALL COORDINATES REFER TO THE PRIMITIVE CELL

 *******************************************************************************

 LATTICE PARAMETERS  (ANGSTROMS AND DEGREES) - PRIMITIVE CELL
       A          B          C        ALPHA      BETA     GAMMA        VOLUME
    6.74969    6.74969    6.74969    60.00000  60.00000  60.00000    217.438305

 COORDINATES OF THE EQUIVALENT ATOMS (FRACTIONAL UNITS)

 N. ATOM EQUIV AT. N.          X                  Y                  Z

   1   1   1    6 C     1.25000000000E-01  1.25000000000E-01  1.25000000000E-01
   2   1   2    6 C    -1.25000000000E-01 -1.25000000000E-01 -1.25000000000E-01

   3   2   1    6 C     3.58700000000E-02  3.58700000000E-02  3.58700000000E-02
   4   2   2    6 C     3.58700000000E-02  3.58700000000E-02  3.92390000000E-01
   5   2   3    6 C     3.92390000000E-01  3.58700000000E-02  3.58700000000E-02
   6   2   4    6 C     3.58700000000E-02  3.92390000000E-01  3.58700000000E-02
   7   2   5    6 C    -3.58700000000E-02 -3.58700000000E-02 -3.58700000000E-02
   8   2   6    6 C    -3.58700000000E-02 -3.58700000000E-02 -3.92390000000E-01
   9   2   7    6 C    -3.58700000000E-02 -3.92390000000E-01 -3.58700000000E-02
  10   2   8    6 C    -3.92390000000E-01 -3.58700000000E-02 -3.58700000000E-02

 NUMBER OF SYMMETRY OPERATORS         :   48
 *******************************************************************************
 * GEOMETRY EDITING - INPUT COORDINATES ARE GIVEN IN ANGSTROM         
 *******************************************************************************

 GEOMETRY NOW FULLY CONSISTENT WITH THE GROUP
 INFORMATION **** NEW DEFAULT **** FINALRUN 4 FOR GEOMETRY OPTIMIZATIONS
 INFORMATION **** NEW DEFAULT **** OPTGEOM OPTIMIZES BOTH ATOMIC COORDINATES AND CELL PARAMETERS
 INFORMATION **** NEW DEFAULT **** TOL. ON ATOMIC DISP TO REDEFINE REF. GEOMETRY: 0.8 Angs
 INFORMATION **** NEW DEFAULT **** N POINTS TO REDEFINE REF. GEOMETRY: N OF OPT DEGS OF FREEDOM
 INFORMATION **** NEW DEFAULT **** TOL. ON ENERGY TO REDEFINE REF. GEOMETRY: 10**-3*(5*N. ATOMS)
 INFORMATION **** FULLOPTG **** FULL OPTIMIZATION (ATOMS AND CELL PARAMETERS)
 INFORMATION **** MAXCYCLE ****   MAXIMUM NUMBER OF OPTIMIZATION CYCLES        1600

 IMPORTANT INFORMATION:
 THE COORDINATE SYSTEM ADOPTED IN THE OPTIMIZATION IS NOT IN
 GENERAL HOMOGENEOUS UNITS. FOR THIS REASON THE GRADIENT AND 
 HESSIAN MATRIX IN TERMS OF THIS SYSTEM ARE GIVEN WITHOUT
 UNITS. FOR MORE DETAILS SEE THE MANUAL.

 *******************************************************************************
 COMBINED CELL/ATOM OPTIMIZATION CONTROL

 INITIAL TRUST RADIUS         0.50000 MAXIMUM TRUST RADIUS               4.00000
 MAXIMUM GRADIENT COMPONENT   0.00045 MAXIMUM DISPLACEMENT COMPONENT     0.00180
 R.M.S. OF GRADIENT COMPONENT 0.00030 R.M.S. OF DISPLACEMENT COMPONENTS  0.00120
 THRESHOLD ON ENERGY CHANGE 0.100E-06 EXTRAPOLATING POLYNOMIAL ORDER           2
 MAXIMUM ALLOWED NUMBER OF STEPS 1600 SORTING OF ENERGY POINTS:               NO
 ANALYTICAL  GRADIENT                 HESSIAN UPDATING                      BFGS
 STEP SIZE NUMERICAL GRADIENT 0.00100
 INITIAL HESSIAN MATRIX: SCHLEGEL MODEL 2
 *******************************************************************************


 GCALCO - MAX INDICES DIRECT LATTICE VECTOR    14    14    14
 NO.OF VECTORS CREATED 6999 STARS  105 RMAX   134.98688 BOHR

 GEOMETRY FOR WAVE FUNCTION - DIMENSIONALITY OF THE SYSTEM    3
 (NON PERIODIC DIRECTION: LATTICE PARAMETER FORMALLY SET TO 500)
 *******************************************************************************
 LATTICE PARAMETERS (ANGSTROMS AND DEGREES) - BOHR = 0.5291772083 ANGSTROM
 PRIMITIVE CELL - CENTRING CODE 5/0 VOLUME=   217.438305 - DENSITY  0.916 g/cm^3
         A              B              C           ALPHA      BETA       GAMMA 
     6.74968778     6.74968778     6.74968778    60.000000  60.000000  60.000000
 *******************************************************************************
 ATOMS IN THE ASYMMETRIC UNIT    2 - ATOMS IN THE UNIT CELL:   10
     ATOM                 X/A                 Y/B                 Z/C    
 *******************************************************************************
      1 T   6 C     1.250000000000E-01  1.250000000000E-01  1.250000000000E-01
      2 F   6 C    -1.250000000000E-01 -1.250000000000E-01 -1.250000000000E-01
      3 T   6 C     3.587000000000E-02  3.587000000000E-02  3.587000000000E-02
      4 F   6 C     3.587000000000E-02  3.587000000000E-02  3.923900000000E-01
      5 F   6 C     3.923900000000E-01  3.587000000000E-02  3.587000000000E-02
      6 F   6 C     3.587000000000E-02  3.923900000000E-01  3.587000000000E-02
      7 F   6 C    -3.587000000000E-02 -3.587000000000E-02 -3.587000000000E-02
      8 F   6 C    -3.587000000000E-02 -3.587000000000E-02 -3.923900000000E-01
      9 F   6 C    -3.587000000000E-02 -3.923900000000E-01 -3.587000000000E-02
     10 F   6 C    -3.923900000000E-01 -3.587000000000E-02 -3.587000000000E-02

 TRANSFORMATION MATRIX PRIMITIVE-CRYSTALLOGRAPHIC CELL
 -1.0000  1.0000  1.0000  1.0000 -1.0000  1.0000  1.0000  1.0000 -1.0000

 *******************************************************************************
 CRYSTALLOGRAPHIC CELL (VOLUME=        869.75322132)
         A              B              C           ALPHA      BETA       GAMMA 
     9.54550000     9.54550000     9.54550000    90.000000  90.000000  90.000000

 COORDINATES IN THE CRYSTALLOGRAPHIC CELL
     ATOM                 X/A                 Y/B                 Z/C    
 *******************************************************************************
      1 T   6 C     1.250000000000E-01  1.250000000000E-01  1.250000000000E-01
      2 F   6 C    -1.250000000000E-01 -1.250000000000E-01 -1.250000000000E-01
      3 T   6 C     3.587000000000E-02  3.587000000000E-02  3.587000000000E-02
      4 F   6 C     2.141300000000E-01  2.141300000000E-01  3.587000000000E-02
      5 F   6 C     3.587000000000E-02  2.141300000000E-01  2.141300000000E-01
      6 F   6 C     2.141300000000E-01  3.587000000000E-02  2.141300000000E-01
      7 F   6 C    -3.587000000000E-02 -3.587000000000E-02 -3.587000000000E-02
      8 F   6 C    -2.141300000000E-01 -2.141300000000E-01 -3.587000000000E-02
      9 F   6 C    -2.141300000000E-01 -3.587000000000E-02 -2.141300000000E-01
     10 F   6 C    -3.587000000000E-02 -2.141300000000E-01 -2.141300000000E-01

 T = ATOM BELONGING TO THE ASYMMETRIC UNIT

 ****   48 SYMMOPS - TRANSLATORS IN FRACTIONAL UNITS
 **** MATRICES AND TRANSLATORS IN THE CRYSTALLOGRAPHIC REFERENCE FRAME
   V INV                    ROTATION MATRICES                   TRANSLATORS
   1   1  1.00  0.00  0.00  0.00  1.00  0.00  0.00  0.00  1.00  0.00  0.00  0.00
   2   2  0.00  1.00  0.00  1.00  0.00  0.00 -1.00 -1.00 -1.00  0.00  0.00  0.50
   3   3 -1.00 -1.00 -1.00  0.00  0.00  1.00  0.00  1.00  0.00  0.50  0.00  0.00
   4   4  0.00  0.00  1.00 -1.00 -1.00 -1.00  1.00  0.00  0.00  0.00  0.50  0.00
   5   6  0.00  0.00  1.00  1.00  0.00  0.00  0.00  1.00  0.00  0.00  0.00  0.00
   6   5  0.00  1.00  0.00  0.00  0.00  1.00  1.00  0.00  0.00  0.00  0.00  0.00
   7   8  1.00  0.00  0.00  0.00  0.00  1.00 -1.00 -1.00 -1.00  0.00  0.00  0.50
   8   7  1.00  0.00  0.00 -1.00 -1.00 -1.00  0.00  1.00  0.00  0.00  0.50  0.00
   9  10 -1.00 -1.00 -1.00  0.00  1.00  0.00  1.00  0.00  0.00  0.50  0.00  0.00
  10   9  0.00  0.00  1.00  0.00  1.00  0.00 -1.00 -1.00 -1.00  0.00  0.00  0.50
  11  12  0.00  1.00  0.00 -1.00 -1.00 -1.00  0.00  0.00  1.00  0.00  0.50  0.00
  12  11 -1.00 -1.00 -1.00  1.00  0.00  0.00  0.00  0.00  1.00  0.50  0.00  0.00
  13  13  0.00 -1.00  0.00 -1.00  0.00  0.00  0.00  0.00 -1.00  0.00  0.00  0.00
  14  14 -1.00  0.00  0.00  0.00 -1.00  0.00  1.00  1.00  1.00  0.00  0.00  0.50
  15  16  0.00  0.00 -1.00  1.00  1.00  1.00  0.00 -1.00  0.00  0.00  0.50  0.00
  16  15  1.00  1.00  1.00  0.00  0.00 -1.00 -1.00  0.00  0.00  0.50  0.00  0.00
  17  17 -1.00  0.00  0.00  0.00  0.00 -1.00  0.00 -1.00  0.00  0.00  0.00  0.00
  18  18  0.00  0.00 -1.00  0.00 -1.00  0.00 -1.00  0.00  0.00  0.00  0.00  0.00
  19  21  0.00  0.00 -1.00 -1.00  0.00  0.00  1.00  1.00  1.00  0.00  0.00  0.50
  20  22  1.00  1.00  1.00 -1.00  0.00  0.00  0.00 -1.00  0.00  0.50  0.00  0.00
  21  19  0.00 -1.00  0.00  1.00  1.00  1.00 -1.00  0.00  0.00  0.00  0.50  0.00
  22  20  0.00 -1.00  0.00  0.00  0.00 -1.00  1.00  1.00  1.00  0.00  0.00  0.50
  23  23  1.00  1.00  1.00  0.00 -1.00  0.00  0.00  0.00 -1.00  0.50  0.00  0.00
  24  24 -1.00  0.00  0.00  1.00  1.00  1.00  0.00  0.00 -1.00  0.00  0.50  0.00
  25  25 -1.00  0.00  0.00  0.00 -1.00  0.00  0.00  0.00 -1.00  0.00  0.00  0.00
  26  26  0.00 -1.00  0.00 -1.00  0.00  0.00  1.00  1.00  1.00  0.00  0.00  0.50
  27  27  1.00  1.00  1.00  0.00  0.00 -1.00  0.00 -1.00  0.00  0.50  0.00  0.00
  28  28  0.00  0.00 -1.00  1.00  1.00  1.00 -1.00  0.00  0.00  0.00  0.50  0.00
  29  30  0.00  0.00 -1.00 -1.00  0.00  0.00  0.00 -1.00  0.00  0.00  0.00  0.00
  30  29  0.00 -1.00  0.00  0.00  0.00 -1.00 -1.00  0.00  0.00  0.00  0.00  0.00
  31  32 -1.00  0.00  0.00  0.00  0.00 -1.00  1.00  1.00  1.00  0.00  0.00  0.50
  32  31 -1.00  0.00  0.00  1.00  1.00  1.00  0.00 -1.00  0.00  0.00  0.50  0.00
  33  34  1.00  1.00  1.00  0.00 -1.00  0.00 -1.00  0.00  0.00  0.50  0.00  0.00
  34  33  0.00  0.00 -1.00  0.00 -1.00  0.00  1.00  1.00  1.00  0.00  0.00  0.50
  35  36  0.00 -1.00  0.00  1.00  1.00  1.00  0.00  0.00 -1.00  0.00  0.50  0.00
  36  35  1.00  1.00  1.00 -1.00  0.00  0.00  0.00  0.00 -1.00  0.50  0.00  0.00
  37  37  0.00  1.00  0.00  1.00  0.00  0.00  0.00  0.00  1.00  0.00  0.00  0.00
  38  38  1.00  0.00  0.00  0.00  1.00  0.00 -1.00 -1.00 -1.00  0.00  0.00  0.50
  39  40  0.00  0.00  1.00 -1.00 -1.00 -1.00  0.00  1.00  0.00  0.00  0.50  0.00
  40  39 -1.00 -1.00 -1.00  0.00  0.00  1.00  1.00  0.00  0.00  0.50  0.00  0.00
  41  41  1.00  0.00  0.00  0.00  0.00  1.00  0.00  1.00  0.00  0.00  0.00  0.00
  42  42  0.00  0.00  1.00  0.00  1.00  0.00  1.00  0.00  0.00  0.00  0.00  0.00
  43  45  0.00  0.00  1.00  1.00  0.00  0.00 -1.00 -1.00 -1.00  0.00  0.00  0.50
  44  46 -1.00 -1.00 -1.00  1.00  0.00  0.00  0.00  1.00  0.00  0.50  0.00  0.00
  45  43  0.00  1.00  0.00 -1.00 -1.00 -1.00  1.00  0.00  0.00  0.00  0.50  0.00
  46  44  0.00  1.00  0.00  0.00  0.00  1.00 -1.00 -1.00 -1.00  0.00  0.00  0.50
  47  47 -1.00 -1.00 -1.00  0.00  1.00  0.00  0.00  0.00  1.00  0.50  0.00  0.00
  48  48  1.00  0.00  0.00 -1.00 -1.00 -1.00  0.00  0.00  1.00  0.00  0.50  0.00

 DIRECT LATTICE VECTORS CARTESIAN COMPONENTS (ANGSTROM)
          X                    Y                    Z
   0.000000000000E+00   0.477275000000E+01   0.477275000000E+01
   0.477275000000E+01   0.000000000000E+00   0.477275000000E+01
   0.477275000000E+01   0.477275000000E+01   0.000000000000E+00


 CARTESIAN COORDINATES - PRIMITIVE CELL
 *******************************************************************************
 *      ATOM          X(ANGSTROM)         Y(ANGSTROM)         Z(ANGSTROM)
 *******************************************************************************
    1     6 C     1.193187500000E+00  1.193187500000E+00  1.193187500000E+00
    2     6 C    -1.193187500000E+00 -1.193187500000E+00 -1.193187500000E+00
    3     6 C     3.423970850000E-01  3.423970850000E-01  3.423970850000E-01
    4     6 C     2.043977915000E+00  2.043977915000E+00  3.423970850000E-01
    5     6 C     3.423970850000E-01  2.043977915000E+00  2.043977915000E+00
    6     6 C     2.043977915000E+00  3.423970850000E-01  2.043977915000E+00
    7     6 C    -3.423970850000E-01 -3.423970850000E-01 -3.423970850000E-01
    8     6 C    -2.043977915000E+00 -2.043977915000E+00 -3.423970850000E-01
    9     6 C    -2.043977915000E+00 -3.423970850000E-01 -2.043977915000E+00
   10     6 C    -3.423970850000E-01 -2.043977915000E+00 -2.043977915000E+00

 *******************************************************************************
 STARTING BASIS SET HANDLING 
 *******************************************************************************

 Loading internal basis set: POB-TZVP            

 Please cite in your publication:
 Peintinger, M. F., Oliveira, D. V. and Bredow, T. (2013), Consistent Gaussian b
 asis sets of triple-zeta valence with polarization quality for solid-state calc
 ulations. J. Comput. Chem., 34: 451-459. doi: 10.1002/jcc.23153                
                    

 *******************************************************************************
 LOCAL ATOMIC FUNCTIONS BASIS SET
 *******************************************************************************
   ATOM   X(AU)   Y(AU)   Z(AU)  N. TYPE  EXPONENT  S COEF   P COEF   D/F/G COEF
 *******************************************************************************
   1 C    2.255   2.255   2.255
                                  1 S  
                                         1.358E+04 2.225E-04 0.000E+00 0.000E+00
                                         2.035E+03 1.723E-03 0.000E+00 0.000E+00
                                         4.632E+02 8.926E-03 0.000E+00 0.000E+00
                                         1.312E+02 3.573E-02 0.000E+00 0.000E+00
                                         4.285E+01 1.108E-01 0.000E+00 0.000E+00
                                         1.558E+01 2.430E-01 0.000E+00 0.000E+00
                                  2 S  
                                         6.207E+00 4.144E-01 0.000E+00 0.000E+00
                                         2.576E+00 2.374E-01 0.000E+00 0.000E+00
                                  3 S  
                                         4.941E-01 1.000E+00 0.000E+00 0.000E+00
                                  4 S  
                                         1.644E-01 1.000E+00 0.000E+00 0.000E+00
                           5-     7 P  
                                         3.470E+01 0.000E+00 5.333E-03 0.000E+00
                                         7.958E+00 0.000E+00 3.586E-02 0.000E+00
                                         2.378E+00 0.000E+00 1.422E-01 0.000E+00
                                         8.143E-01 0.000E+00 3.427E-01 0.000E+00
                           8-    10 P  
                                         5.662E-01 0.000E+00 1.000E+00 0.000E+00
                          11-    13 P  
                                         2.674E-01 0.000E+00 1.000E+00 0.000E+00
                          14-    18 D  
                                         8.792E-01 0.000E+00 0.000E+00 1.000E+00
   2 C   -2.255  -2.255  -2.255
   3 C    0.647   0.647   0.647
   4 C    3.863   3.863   0.647
   5 C    0.647   3.863   3.863
   6 C    3.863   0.647   3.863
   7 C   -0.647  -0.647  -0.647
   8 C   -3.863  -3.863  -0.647
   9 C   -3.863  -0.647  -3.863
  10 C   -0.647  -3.863  -3.863

 *******************************************************************************
 FINISHED BASIS SET HANDLING 
 *******************************************************************************

 INFORMATION **** SET_MPP **** PCRYSTAL CALCULATION
 INFORMATION **** READM2 **** NEW DEFAULT: FOCK/KS MATRIX MIXING SET TO 30 %
 INFORMATION **** READM2 **** NEW DEFAULT: FULL DIRECT SCF MODE
 INFORMATION **** READM2 **** NEW DEFAULT: COULOMB BIPOLAR BUFFER SET TO 32 Mb
 INFORMATION **** READM2 **** NEW DEFAULT: EXCHANGE BIPOLAR BUFFER SET TO 32 Mb

 *******************************************************************************
 NEW DEFAULT: DFT INTEGRATION GRID INCREASED TO XLGRID
 NEW DEFAULT: DIIS ACCELERATOR ACTIVE
 USE KEYWORD NODIIS TO TURN IT OFF
 *******************************************************************************

 INFORMATION **** DFTD3_INPUT **** PERFORM LATEST DISPERSION CORRECTION DFT-D3(BJ) WITH AUTOMATIC PARAMETER SETUP
 PLEASE CITE:
 (1) DFT-D3 Reference
  S. Grimme, J. Antony, S. Ehrlich, and H. Krieg, J. Chem. Phys. 132 (2010), 154104
 (2) BJ-Damping Reference
  S. Grimme, S. Ehrlich, and L. Goerigk, J. Comput. Chem. 32 (2011), 1456-1465
 (3) General DFT-D Review
  S. Grimme, A. Hansen, J. G. Brandenburg, and C. Bannwarth,
  Chem. Rev. 116 (2016), 5105-5154

 INFORMATION **** MAXCYCLE **** MAX NUMBER OF SCF CYCLES SET TO        1600
 INFORMATION **** DIIS **** DIIS FOR SCF ACTIVE
 INFORMATION **** DIIS **** LEVEL SHIFTER DISABLED
 INFORMATION **** TOLINTEG **** COULOMB AND EXCHANGE SERIES TOLERANCES MODIFIED
 INFORMATION **** TOLDEE **** SCF TOL ON TOTAL ENERGY SET TO           7
 INFORMATION **** PPAN ****  MULLIKEN POPULATION ANALYSIS AT THE END OF SCF
 *******************************************************************************
 N. OF ATOMS PER CELL        10  COULOMB OVERLAP TOL         (T1) 10**   -7
 NUMBER OF SHELLS            80  COULOMB PENETRATION TOL     (T2) 10**   -7
 NUMBER OF AO               180  EXCHANGE OVERLAP TOL        (T3) 10**   -7
 N. OF ELECTRONS PER CELL    60  EXCHANGE PSEUDO OVP (F(G))  (T4) 10**   -7
 CORE ELECTRONS PER CELL     20  EXCHANGE PSEUDO OVP (P(G))  (T5) 10**  -14
 N. OF SYMMETRY OPERATORS    48  POLE ORDER IN MONO ZONE                  4
 *******************************************************************************
 TYPE OF CALCULATION :  RESTRICTED CLOSED SHELL
 KOHN-SHAM HAMILTONIAN

 (EXCHANGE)[CORRELATION] FUNCTIONAL:(BECKE 88)[LEE-YANG-PARR]

 NON-LOCAL WEIGHTING FACTOR (EXCHANGE) =           0.9000
 NON-LOCAL WEIGHTING FACTOR [CORRELATION] =        0.8100

 HYBRID EXCHANGE - PERCENTAGE OF FOCK EXCHANGE    20.0000

 CAPPA:IS1  5;IS2  5;IS3  5; K PTS MONK NET  10; SYMMOPS:K SPACE  48;G SPACE  48

 *******************************************************************************
 MAX NUMBER OF SCF CYCLES    1600  CONVERGENCE ON DELTAP        10**-17
 WEIGHT OF F(I) IN F(I+1)      60% CONVERGENCE ON ENERGY        10**- 7
 SHRINK. FACT.(MONKH.)    5  5  5  NUMBER OF K POINTS IN THE IBZ     10
 SHRINKING FACTOR(GILAT NET)   10  NUMBER OF K POINTS(GILAT NET)     47
 *******************************************************************************
 *** K POINTS COORDINATES (OBLIQUE COORDINATES IN UNITS OF IS =  5)
   1-R(  0  0  0)   2-C(  1  0  0)   3-C(  2  0  0)   4-C(  1  1  0)
   5-C(  2  1  0)   6-C(  3  1  0)   7-C(  4  1  0)   8-C(  2  2  0)
   9-C(  3  2  0)  10-C(  3  2  1)

 DIRECT LATTICE VECTORS COMPON. (A.U.)     RECIP. LATTICE VECTORS COMPON. (A.U.) 
        X            Y            Z              X            Y            Z
    0.0000000    9.0191904    9.0191904     -0.3483231    0.3483231    0.3483231
    9.0191904    0.0000000    9.0191904      0.3483231   -0.3483231    0.3483231
    9.0191904    9.0191904    0.0000000      0.3483231    0.3483231   -0.3483231

 DISK SPACE FOR EIGENVECTORS (FTN 10)      615600 REALS

 SYMMETRY ADAPTION OF THE BLOCH FUNCTIONS ENABLED
 TTTTTTTTTTTTTTTTTTTTTTTTTTTTTT gordsh1     TELAPSE        2.91 TCPU        1.68

 MATRIX SIZE: P(G)  131228, F(G)   23066, P(G) IRR    3388, F(G) IRR    1887
 MAX G-VECTOR INDEX FOR 1- AND 2-ELECTRON INTEGRALS  79

 TTTTTTTTTTTTTTTTTTTTTTTTTTTTTT INPUT       TELAPSE        3.08 TCPU        1.85

 NEIGHBORS OF THE NON-EQUIVALENT ATOMS

 N = NUMBER OF NEIGHBORS AT DISTANCE R
    ATOM  N     R/ANG      R/AU   NEIGHBORS (ATOM LABELS AND CELL INDICES)
   1 C    4     1.4736     2.7847    3 C    0 0 0    4 C    0 0 0    5 C    0 0 0
                                     6 C    0 0 0
   1 C    4     2.6597     5.0261    7 C    0 0 0    8 C    0 0 1    9 C    0 1 0
                                    10 C    1 0 0
   1 C    4     4.1333     7.8108    2 C    0 0 0    2 C    1 0 0    2 C    0 1 0
                                     2 C    0 0 1
   1 C   12     4.8287     9.1250    7 C    1 0 0    7 C    0 1 0    7 C    0 0 1
                                     8 C    0 1 0    8 C    1 0 0    8 C    0 0 0
                                     9 C    0 0 1    9 C    0 0 0    9 C    1 0 0
                                    10 C    0 0 0   10 C    0 0 1   10 C    0 1 0
   1 C   12     5.6114    10.6039    3 C    1 0 0    3 C    0 1 0    3 C    0 0 1
                                     4 C    0 1-1    4 C    1 0-1    4 C    0 0-1
                                     5 C   -1 0 0    5 C   -1 0 1    5 C   -1 1 0
                                     6 C    0-1 1    6 C    0-1 0    6 C    1-1 0
   1 C   12     6.7497    12.7551    1 C   -1 0 0    1 C    1 0 0    1 C   -1 0 1
                                     1 C    1 0-1    1 C   -1 1 0    1 C    1-1 0
                                     1 C    0-1 0    1 C    0 1 0    1 C    0-1 1
                                     1 C    0 1-1    1 C    0 0-1    1 C    0 0 1

   3 C    1     1.1861     2.2414    7 C    0 0 0
   3 C    1     1.4736     2.7847    1 C    0 0 0
   3 C    3     2.4064     4.5474    4 C    0 0 0    5 C    0 0 0    6 C    0 0 0
   3 C    1     2.6597     5.0261    2 C    0 0 0
   3 C    6     3.4436     6.5075    8 C    0 0 0    8 C    0 0 1    9 C    0 0 0
                                     9 C    0 1 0   10 C    0 0 0   10 C    1 0 0
   3 C    3     4.3433     8.2076    4 C    0 0-1    5 C   -1 0 0    6 C    0-1 0


 SYMMETRY ALLOWED ELASTIC DISTORTION 1
  0.5773503  0.0000000  0.0000000
  0.0000000  0.5773503  0.0000000
  0.0000000  0.0000000  0.5773503

 SYMMETRY ALLOWED INTERNAL DEGREE(S) OF FREEDOM:   1
 TTTTTTTTTTTTTTTTTTTTTTTTTTTTTT SYMM        TELAPSE        4.12 TCPU        2.84
 TTTTTTTTTTTTTTTTTTTTTTTTTTTTTT INT_SCREEN  TELAPSE        4.31 TCPU        3.04

 *******************************************************************************
 *                             OPTIMIZATION STARTS                             *
 *******************************************************************************
 RECLASIFICATION OF INDICES FOR INTEGRAL CALC ACCORDING TO DIFFERENT CRITERIA:
           FIXDELTE                  FIXDELTX              FIXDELTN
          0.10000000               0.80000000                 10
 *******************************************************************************

 *******************************************************************************
 COORDINATE AND CELL OPTIMIZATION - POINT    1
 INFORMATION **** EXCBUF **** EXCH. BIPO BUFFER: WORDS USED =      227259

 DFT PARAMETERS

     ATOM       ELECTRONS   NET CHARGE   R(ANGSTROM)
   1   6  C       6.0000      0.0000     0.77000000

 SIZE OF GRID=       8882
 TTTTTTTTTTTTTTTTTTTTTTTTTTTTTT MAKE_GRID2  TELAPSE        4.83 TCPU        3.55
 BECKE WEIGHT FUNCTION
 RADSAFE =     2.00
 TOLERANCES - DENSITY:10**- 6; POTENTIAL:10**- 9; GRID WGT:10**-14

 RADIAL INTEGRATION  - INTERVALS (POINTS,UPPER LIMIT):            1( 75,  4.0*R)

 ANGULAR INTEGRATION - INTERVALS (ACCURACY LEVEL [N. POINTS] UPPER LIMIT):
  1(  4[  86]   0.2)  2(  8[ 194]   0.5)  3( 12[ 350]   0.9)  4( 16[ 974]   3.5)
  5( 12[ 350]9999.0)
 TTTTTTTTTTTTTTTTTTTTTTTTTTTTTT INT_CALC    TELAPSE        5.04 TCPU        3.76

 *******************************************************************************
 3_dia3_opt                                                                      
 CRYSTAL - SCF - TYPE OF CALCULATION :  RESTRICTED CLOSED SHELL
 *******************************************************************************

 CAPPA:IS1  5;IS2  5;IS3  5; K PTS MONK NET  10; SYMMOPS:K SPACE  48;G SPACE  48

 TTTTTTTTTTTTTTTTTTTTTTTTTTTTTT SDIK        TELAPSE        5.10 TCPU        3.80

 AAAAAAAAAAAAAAAAAAAAAAAAAAAAAAAAAAAAAAAAAAAAAAAAAAAAAAAAAAAAAAAAAAAAAAAAAAAAAAA
         ATOMIC WAVEFUNCTION(S)


 NUCLEAR CHARGE  6.0  SYMMETRY SPECIES            S    P
 N. ELECTRONS    6.0  NUMBER OF PRIMITIVE GTOS   10    6
                      NUMBER OF CONTRACTED GTOS   4    3
                      NUMBER OF CLOSED SHELLS     2    0
                      OPEN SHELL OCCUPATION       0    2

  ZNUC SCFIT  TOTAL HF ENERGY   KINETIC ENERGY   VIRIAL THEOREM ACCURACY
   6.0  10   -3.766702350E+01  3.783137943E+01 -1.995655566E+00  1.6E-06

 AAAAAAAAAAAAAAAAAAAAAAAAAAAAAAAAAAAAAAAAAAAAAAAAAAAAAAAAAAAAAAAAAAAAAAAAAAAAAAA

 CHARGE NORMALIZATION FACTOR   1.00000000
 TOTAL ATOMIC CHARGES:
   6.0000000   6.0000000   6.0000000   6.0000000   6.0000000   6.0000000
   6.0000000   6.0000000   6.0000000   6.0000000
 TTTTTTTTTTTTTTTTTTTTTTTTTTTTTT MOQGAD      TELAPSE        5.14 TCPU        3.84
 TTTTTTTTTTTTTTTTTTTTTTTTTTTTTT SHELLXN     TELAPSE        5.32 TCPU        3.99
 TTTTTTTTTTTTTTTTTTTTTTTTTTTTTT MONMO3      TELAPSE        5.40 TCPU        4.07
 NUMERICALLY INTEGRATED DENSITY     59.9999725920
 TTTTTTTTTTTTTTTTTTTTTTTTTTTTTT NUMDFT      TELAPSE        5.41 TCPU        4.08
 CYC   0 ETOT(AU) -3.832406954136E+02 DETOT -3.83E+02 tst  0.00E+00 PX  1.00E+00
 TTTTTTTTTTTTTTTTTTTTTTTTTTTTTT DIIS        TELAPSE        5.41 TCPU        4.08
 TTTTTTTTTTTTTTTTTTTTTTTTTTTTTT FDIK        TELAPSE        5.60 TCPU        4.24
 INSULATING STATE
 TOP OF VALENCE BANDS -    BAND     30; K    3; EIG -3.0378280E-01 AU
 TOP OF VALENCE BANDS -    BAND     30; K    1; EIG -3.0378411E-01 AU
 BOTTOM OF VIRTUAL BANDS - BAND     31; K    9; EIG -6.4207093E-02 AU
 INDIRECT ENERGY BAND GAP:   6.5192 eV
 BOTTOM OF VIRTUAL BANDS - BAND     31; K    1; EIG -6.1395881E-02 AU
 TTTTTTTTTTTTTTTTTTTTTTTTTTTTTT PDIG        TELAPSE        5.60 TCPU        4.24
 CHARGE NORMALIZATION FACTOR   1.00000000
 TOTAL ATOMIC CHARGES:
   5.6658429   5.6658429   6.0835393   6.0835393   6.0835393   6.0835393
   6.0835393   6.0835393   6.0835393   6.0835393
 TTTTTTTTTTTTTTTTTTTTTTTTTTTTTT MOQGAD      TELAPSE        5.60 TCPU        4.25
 TTTTTTTTTTTTTTTTTTTTTTTTTTTTTT SHELLXN     TELAPSE        5.77 TCPU        4.41
 TTTTTTTTTTTTTTTTTTTTTTTTTTTTTT MONMO3      TELAPSE        5.86 TCPU        4.50
 NUMERICALLY INTEGRATED DENSITY     59.9999973340
 TTTTTTTTTTTTTTTTTTTTTTTTTTTTTT NUMDFT      TELAPSE        5.90 TCPU        4.54
 CYC   1 ETOT(AU) -3.804305626158E+02 DETOT  2.81E+00 tst  0.00E+00 PX  1.00E+00
 TTTTTTTTTTTTTTTTTTTTTTTTTTTTTT DIIS        TELAPSE        5.90 TCPU        4.54
 DIIS TEST: 0.30341E+01 AT SCF   CYCLE   1 - MIX   60 %
 TTTTTTTTTTTTTTTTTTTTTTTTTTTTTT FDIK        TELAPSE        6.11 TCPU        4.74
 INSULATING STATE
 TOP OF VALENCE BANDS -    BAND     30; K    3; EIG -2.6127023E-01 AU
 TOP OF VALENCE BANDS -    BAND     30; K    1; EIG -2.6127303E-01 AU
 BOTTOM OF VIRTUAL BANDS - BAND     31; K    9; EIG -2.8072275E-02 AU
 INDIRECT ENERGY BAND GAP:   6.3456 eV
 BOTTOM OF VIRTUAL BANDS - BAND     31; K    1; EIG -2.4871589E-02 AU
 TTTTTTTTTTTTTTTTTTTTTTTTTTTTTT PDIG        TELAPSE        6.29 TCPU        4.93
 CHARGE NORMALIZATION FACTOR   1.00000000
 TOTAL ATOMIC CHARGES:
   5.9815922   5.9815922   6.0046020   6.0046020   6.0046020   6.0046020
   6.0046020   6.0046020   6.0046020   6.0046020
 TTTTTTTTTTTTTTTTTTTTTTTTTTTTTT MOQGAD      TELAPSE        6.29 TCPU        4.93
 TTTTTTTTTTTTTTTTTTTTTTTTTTTTTT SHELLXN     TELAPSE        6.45 TCPU        5.09
 TTTTTTTTTTTTTTTTTTTTTTTTTTTTTT MONMO3      TELAPSE        6.55 TCPU        5.18
 NUMERICALLY INTEGRATED DENSITY     59.9999971493
 TTTTTTTTTTTTTTTTTTTTTTTTTTTTTT NUMDFT      TELAPSE        6.58 TCPU        5.22
 CYC   2 ETOT(AU) -3.805454753910E+02 DETOT -1.15E-01 tst  1.12E-03 PX  5.85E-02
 TTTTTTTTTTTTTTTTTTTTTTTTTTTTTT DIIS        TELAPSE        6.59 TCPU        5.22
 DIIS TEST: 0.18844E+00 AT SCF   CYCLE   2 - DIIS ACTIVE - HISTORY:     2 CYCLES
 TTTTTTTTTTTTTTTTTTTTTTTTTTTTTT FDIK        TELAPSE        6.76 TCPU        5.40
 INSULATING STATE
 TOP OF VALENCE BANDS -    BAND     30; K    3; EIG -2.4522238E-01 AU
 TOP OF VALENCE BANDS -    BAND     30; K    1; EIG -2.4522766E-01 AU
 BOTTOM OF VIRTUAL BANDS - BAND     31; K    9; EIG  6.4529775E-03 AU
 INDIRECT ENERGY BAND GAP:   6.8484 eV
 BOTTOM OF VIRTUAL BANDS - BAND     31; K    1; EIG  6.5508453E-03 AU
 TTTTTTTTTTTTTTTTTTTTTTTTTTTTTT PDIG        TELAPSE        6.86 TCPU        5.49
 CHARGE NORMALIZATION FACTOR   1.00000000
 TOTAL ATOMIC CHARGES:
   5.9439947   5.9439947   6.0140013   6.0140013   6.0140013   6.0140013
   6.0140013   6.0140013   6.0140013   6.0140013
 TTTTTTTTTTTTTTTTTTTTTTTTTTTTTT MOQGAD      TELAPSE        6.86 TCPU        5.49
 TTTTTTTTTTTTTTTTTTTTTTTTTTTTTT SHELLXN     TELAPSE        7.02 TCPU        5.65
 TTTTTTTTTTTTTTTTTTTTTTTTTTTTTT MONMO3      TELAPSE        7.12 TCPU        5.75
 NUMERICALLY INTEGRATED DENSITY     59.9999970110
 TTTTTTTTTTTTTTTTTTTTTTTTTTTTTT NUMDFT      TELAPSE        7.15 TCPU        5.78
 CYC   3 ETOT(AU) -3.805543171405E+02 DETOT -8.84E-03 tst  2.41E-04 PX  5.11E-02
 TTTTTTTTTTTTTTTTTTTTTTTTTTTTTT DIIS        TELAPSE        7.15 TCPU        5.79
 DIIS TEST: 0.32737E-01 AT SCF   CYCLE   3 - DIIS ACTIVE - HISTORY:     3 CYCLES
 TTTTTTTTTTTTTTTTTTTTTTTTTTTTTT FDIK        TELAPSE        7.17 TCPU        5.80
 INSULATING STATE
 TOP OF VALENCE BANDS -    BAND     30; K    3; EIG -2.5292218E-01 AU
 TOP OF VALENCE BANDS -    BAND     30; K    1; EIG -2.5292740E-01 AU
 BOTTOM OF VIRTUAL BANDS - BAND     31; K    9; EIG -1.6888773E-03 AU
 INDIRECT ENERGY BAND GAP:   6.8364 eV
 BOTTOM OF VIRTUAL BANDS - BAND     31; K    1; EIG -8.8984334E-04 AU
 TTTTTTTTTTTTTTTTTTTTTTTTTTTTTT PDIG        TELAPSE        7.17 TCPU        5.80
 CHARGE NORMALIZATION FACTOR   1.00000000
 TOTAL ATOMIC CHARGES:
   5.9978981   5.9978981   6.0005255   6.0005255   6.0005255   6.0005255
   6.0005255   6.0005255   6.0005255   6.0005255
 TTTTTTTTTTTTTTTTTTTTTTTTTTTTTT MOQGAD      TELAPSE        7.17 TCPU        5.80
 TTTTTTTTTTTTTTTTTTTTTTTTTTTTTT SHELLXN     TELAPSE        7.33 TCPU        5.96
 TTTTTTTTTTTTTTTTTTTTTTTTTTTTTT MONMO3      TELAPSE        7.43 TCPU        6.06
 NUMERICALLY INTEGRATED DENSITY     59.9999970076
 TTTTTTTTTTTTTTTTTTTTTTTTTTTTTT NUMDFT      TELAPSE        7.46 TCPU        6.09
 CYC   4 ETOT(AU) -3.805560222246E+02 DETOT -1.71E-03 tst  4.38E-05 PX  1.64E-02
 TTTTTTTTTTTTTTTTTTTTTTTTTTTTTT DIIS        TELAPSE        7.47 TCPU        6.10
 DIIS TEST: 0.60761E-04 AT SCF   CYCLE   4 - DIIS ACTIVE - HISTORY:     4 CYCLES
 TTTTTTTTTTTTTTTTTTTTTTTTTTTTTT FDIK        TELAPSE        7.48 TCPU        6.11
 INSULATING STATE
 TOP OF VALENCE BANDS -    BAND     30; K    3; EIG -2.5234407E-01 AU
 TOP OF VALENCE BANDS -    BAND     30; K    1; EIG -2.5234924E-01 AU
 BOTTOM OF VIRTUAL BANDS - BAND     31; K    9; EIG -9.7045207E-04 AU
 INDIRECT ENERGY BAND GAP:   6.8402 eV
 BOTTOM OF VIRTUAL BANDS - BAND     31; K    1; EIG -2.5849488E-04 AU
 TTTTTTTTTTTTTTTTTTTTTTTTTTTTTT PDIG        TELAPSE        7.49 TCPU        6.11
 CHARGE NORMALIZATION FACTOR   1.00000000
 TOTAL ATOMIC CHARGES:
   5.9984857   5.9984857   6.0003786   6.0003786   6.0003786   6.0003786
   6.0003786   6.0003786   6.0003786   6.0003786
 TTTTTTTTTTTTTTTTTTTTTTTTTTTTTT MOQGAD      TELAPSE        7.49 TCPU        6.11
 TTTTTTTTTTTTTTTTTTTTTTTTTTTTTT SHELLXN     TELAPSE        7.65 TCPU        6.27
 TTTTTTTTTTTTTTTTTTTTTTTTTTTTTT MONMO3      TELAPSE        7.75 TCPU        6.37
 NUMERICALLY INTEGRATED DENSITY     59.9999969974
 TTTTTTTTTTTTTTTTTTTTTTTTTTTTTT NUMDFT      TELAPSE        7.78 TCPU        6.41
 CYC   5 ETOT(AU) -3.805560283077E+02 DETOT -6.08E-06 tst  1.82E-07 PX  3.45E-03
 TTTTTTTTTTTTTTTTTTTTTTTTTTTTTT DIIS        TELAPSE        7.79 TCPU        6.41
 DIIS TEST: 0.30920E-05 AT SCF   CYCLE   5 - DIIS ACTIVE - HISTORY:     5 CYCLES
 TTTTTTTTTTTTTTTTTTTTTTTTTTTTTT FDIK        TELAPSE        7.89 TCPU        6.52
 INSULATING STATE
 TOP OF VALENCE BANDS -    BAND     30; K    3; EIG -2.5255891E-01 AU
 TOP OF VALENCE BANDS -    BAND     30; K    1; EIG -2.5256406E-01 AU
 BOTTOM OF VIRTUAL BANDS - BAND     31; K    9; EIG -1.1967172E-03 AU
 INDIRECT ENERGY BAND GAP:   6.8399 eV
 BOTTOM OF VIRTUAL BANDS - BAND     31; K    1; EIG -4.7434301E-04 AU
 TTTTTTTTTTTTTTTTTTTTTTTTTTTTTT PDIG        TELAPSE        7.93 TCPU        6.55
 CHARGE NORMALIZATION FACTOR   1.00000000
 TOTAL ATOMIC CHARGES:
   5.9982719   5.9982719   6.0004320   6.0004320   6.0004320   6.0004320
   6.0004320   6.0004320   6.0004320   6.0004320
 TTTTTTTTTTTTTTTTTTTTTTTTTTTTTT MOQGAD      TELAPSE        7.93 TCPU        6.56
 TTTTTTTTTTTTTTTTTTTTTTTTTTTTTT SHELLXN     TELAPSE        8.10 TCPU        6.72
 TTTTTTTTTTTTTTTTTTTTTTTTTTTTTT MONMO3      TELAPSE        8.20 TCPU        6.82
 NUMERICALLY INTEGRATED DENSITY     59.9999969973
 TTTTTTTTTTTTTTTTTTTTTTTTTTTTTT NUMDFT      TELAPSE        8.23 TCPU        6.85
 CYC   6 ETOT(AU) -3.805560289093E+02 DETOT -6.02E-07 tst  5.24E-09 PX  6.86E-04
 TTTTTTTTTTTTTTTTTTTTTTTTTTTTTT DIIS        TELAPSE        8.24 TCPU        6.86
 DIIS TEST: 0.14226E-07 AT SCF   CYCLE   6 - DIIS ACTIVE - HISTORY:     6 CYCLES
 TTTTTTTTTTTTTTTTTTTTTTTTTTTTTT FDIK        TELAPSE        8.25 TCPU        6.87
 INSULATING STATE
 TOP OF VALENCE BANDS -    BAND     30; K    3; EIG -2.5254978E-01 AU
 TOP OF VALENCE BANDS -    BAND     30; K    1; EIG -2.5255493E-01 AU
 BOTTOM OF VIRTUAL BANDS - BAND     31; K    9; EIG -1.1872594E-03 AU
 INDIRECT ENERGY BAND GAP:   6.8399 eV
 BOTTOM OF VIRTUAL BANDS - BAND     31; K    1; EIG -4.6519485E-04 AU
 TTTTTTTTTTTTTTTTTTTTTTTTTTTTTT PDIG        TELAPSE        8.25 TCPU        6.87
 CHARGE NORMALIZATION FACTOR   1.00000000
 TOTAL ATOMIC CHARGES:
   5.9982780   5.9982780   6.0004305   6.0004305   6.0004305   6.0004305
   6.0004305   6.0004305   6.0004305   6.0004305
 TTTTTTTTTTTTTTTTTTTTTTTTTTTTTT MOQGAD      TELAPSE        8.25 TCPU        6.87
 TTTTTTTTTTTTTTTTTTTTTTTTTTTTTT SHELLXN     TELAPSE        8.42 TCPU        7.03
 TTTTTTTTTTTTTTTTTTTTTTTTTTTTTT MONMO3      TELAPSE        8.51 TCPU        7.13
 NUMERICALLY INTEGRATED DENSITY     59.9999969970
 TTTTTTTTTTTTTTTTTTTTTTTTTTTTTT NUMDFT      TELAPSE        8.55 TCPU        7.17
 CYC   7 ETOT(AU) -3.805560289127E+02 DETOT -3.36E-09 tst  1.99E-10 PX  2.82E-04
 TTTTTTTTTTTTTTTTTTTTTTTTTTTTTT DIIS        TELAPSE        8.56 TCPU        7.17
 DIIS TEST: 0.17995E-08 AT SCF   CYCLE   7 - DIIS ACTIVE - HISTORY:     7 CYCLES
 TTTTTTTTTTTTTTTTTTTTTTTTTTTTTT FDIK        TELAPSE        8.57 TCPU        7.18
 INSULATING STATE
 TOP OF VALENCE BANDS -    BAND     30; K    3; EIG -2.5255023E-01 AU
 TOP OF VALENCE BANDS -    BAND     30; K    1; EIG -2.5255537E-01 AU
 BOTTOM OF VIRTUAL BANDS - BAND     31; K    9; EIG -1.1877592E-03 AU
 INDIRECT ENERGY BAND GAP:   6.8399 eV
 BOTTOM OF VIRTUAL BANDS - BAND     31; K    1; EIG -4.6559707E-04 AU
 TTTTTTTTTTTTTTTTTTTTTTTTTTTTTT PDIG        TELAPSE        8.57 TCPU        7.19
 CHARGE NORMALIZATION FACTOR   1.00000000
 TOTAL ATOMIC CHARGES:
   5.9982785   5.9982785   6.0004304   6.0004304   6.0004304   6.0004304
   6.0004304   6.0004304   6.0004304   6.0004304
 TTTTTTTTTTTTTTTTTTTTTTTTTTTTTT MOQGAD      TELAPSE        8.57 TCPU        7.19
 TTTTTTTTTTTTTTTTTTTTTTTTTTTTTT SHELLXN     TELAPSE        8.73 TCPU        7.35
 +++ ENERGIES IN A.U. +++
 ::: EXT EL-POLE                                  -4.5052532577977E+02
 ::: EXT EL-SPHEROPOLE                             4.9623619689903E+00
 ::: BIELET ZONE E-E                               6.1687712969606E+02
 ::: TOTAL E-E                                     1.7131416588528E+02
 ::: TOTAL E-N + N-E                              -8.8087472396755E+02
 ::: TOTAL N-N                                    -7.1578533447067E+00
 ::: KINETIC ENERGY                                3.7995809609394E+02
 ::: PSEUDO TOTAL   ENERGY                        -3.3676031533304E+02
 ::: VIRIAL COEFFICIENT                            1.0602716214237E+00
 TTTTTTTTTTTTTTTTTTTTTTTTTTTTTT MONMO3      TELAPSE        8.83 TCPU        7.44
 NUMERICALLY INTEGRATED DENSITY     59.9999969969
 TTTTTTTTTTTTTTTTTTTTTTTTTTTTTT NUMDFT      TELAPSE        8.86 TCPU        7.48
 CYC   8 ETOT(AU) -3.805560289187E+02 DETOT -6.02E-09 tst  1.58E-11 PX  2.82E-04

 == SCF ENDED - CONVERGENCE ON ENERGY      E(AU) -3.8055602891867E+02 CYCLES   8


 ENERGY EXPRESSION=HARTREE+FOCK EXCH*0.20000+(BECKE      EXCH)*0.80000+LYP        CORR


 TOTAL ENERGY(DFT)(AU)(  8) -3.8055602891867E+02 DE-6.0E-09 tester 1.6E-11
 TTTTTTTTTTTTTTTTTTTTTTTTTTTTTT EDFT        TELAPSE        8.86 TCPU        7.48

 *******************************************************************************
 *                             FORCE CALCULATION                               *
 *******************************************************************************

 TTTTTTTTTTTTTTTTTTTTTTTTTTTTTT NUMDFG      TELAPSE        9.04 TCPU        7.65
 INFORMATION **** EXCPOG **** EXCH. BIPO BUFFER LENGTH (WORDS) =      909036
 INFORMATION **** GENPOG **** BIPO BUFFER LENGTH (WORDS) =      522400
 TTTTTTTTTTTTTTTTTTTTTTTTTTTTTT SHELXG      TELAPSE       10.09 TCPU        8.70


 D3 DISPERSION ENERGY (AU)       -4.3074299592016E-02
 TOTAL ENERGY + DISP (AU)        -3.8059910321826E+02

 CARTESIAN FORCES IN HARTREE/BOHR (ANALYTICAL)
   ATOM                     X                   Y                   Z
   1   6            -1.110223024625E-16  4.440892098501E-16  2.118675605326E-15
   2   6            -4.348373513115E-16  8.789265611616E-16  5.088522196199E-16
   3   6             4.840184782340E-04  4.840184782335E-04  4.840184782331E-04
   4   6            -4.840184782328E-04 -4.840184782319E-04  4.840184782316E-04
   5   6             4.840184782288E-04 -4.840184782344E-04 -4.840184782306E-04
   6   6            -4.840184782368E-04  4.840184782346E-04 -4.840184782332E-04
   7   6            -4.840184782341E-04 -4.840184782333E-04 -4.840184782329E-04
   8   6             4.840184782330E-04  4.840184782315E-04 -4.840184782308E-04
   9   6             4.840184782357E-04 -4.840184782341E-04  4.840184782319E-04
  10   6            -4.840184782269E-04  4.840184782325E-04  4.840184782293E-04

 RESULTANT FORCE     4.533591384248E-16 -1.758033822685E-16  1.073143310326E-15

 ATOMIC PART

 SYMMETRY ALLOWED FORCES (ANALYTICAL) (DIRECTION, FORCE)

    1  2.3711966E-03

 CELL PART

 GRADIENT WITH RESPECT TO THE CELL PARAMETER IN HARTREE/BOHR
ORDER: -D/DA1X, -D/DA1Y, -D/DA1Z
       -D/DA2X, -D/DA2Y, -D/DA2Z
       -D/DA3X, -D/DA3Y, -D/DA3Z
 -0.733670493718E-04  0.733670493738E-04  0.733670493728E-04
  0.733670493738E-04 -0.733670493742E-04  0.733670493750E-04
  0.733670493742E-04  0.733670493755E-04 -0.733670493737E-04

STRESS TENSOR, IN HARTREE/BOHR^3:
ORDER: 11 12 13
       21 22 23
       31 32 33
 -0.901915690375E-06 -0.143306257957E-16 -0.122833935392E-16
 -0.818885513751E-17 -0.901915690383E-06  0.204723225653E-17
 -0.767710248985E-17  0.562987023331E-17 -0.901915690374E-06

PRESSURE FROM THE STRESS TENSOR,
IN HARTREE/BOHR^3:  0.90192E-06
PRESSURE IN GIGAPASCAL:  0.2654E-01
CONVERSION FACTOR: 1 HARTREE/BOHR^3= 29421 GIGAPASCAL
WHEN USING VALUES FOR BOHR RADIUS AND HARTREE
FROM IUPAC WEBSITE, APRIL 2009
ENTHALPY: -3.8059777979548E+02

 SYMMETRY ALLOWED FORCES (ANALYTICAL) (DIRECTION, FORCE)

    1  2.7104701E-04
 TTTTTTTTTTTTTTTTTTTTTTTTTTTTTT TOTGRA_C    TELAPSE       10.70 TCPU        9.31
 INFORMATION **** optc0001 **** GEOMETRY OUTPUT FILE
 CLASSICAL MODEL (SCHLEGEL) USED AS INITIAL HESSIAN MATRIX
 REFERENCE GEOMETRY DEFINED

 MAX GRADIENT      0.002371  THRESHOLD              0.000450 CONVERGED NO
 RMS GRADIENT      0.001688  THRESHOLD              0.000300 CONVERGED NO

 GRADIENT NORM     0.002387  GRADIENT THRESHOLD     0.500000

 EIGENVALUES OF THE ESTIMATED HESSIAN
  0.1380       1.980    

 INITIAL TRUST RADIUS    0.5000000000E+00

 PREDICTED ENERGY CHANGE    -0.144E-05

 INITIAL DISPLACEMENTS
  0.001196  0.000151
 TTTTTTTTTTTTTTTTTTTTTTTTTTTTTT OPTI        TELAPSE       11.01 TCPU        9.32

 OPTOPTOPTOPTOPTOPTOPTOPTOPTOPTOPTOPTOPTOPTOPTOPTOPTOPTOPTOPTOPTOPTOPTOPTOPTOPT

 - INFORMATION ON SCF MOVED TO SCFOUT.LOG
 GEOMETRY OPTIMIZATION INFORMATION STORED IN OPTINFO.DAT

 OPTOPTOPTOPTOPTOPTOPTOPTOPTOPTOPTOPTOPTOPTOPTOPTOPTOPTOPTOPTOPTOPTOPTOPTOPTOPT
 *******************************************************************************
 COORDINATE AND CELL OPTIMIZATION - POINT    2
 *******************************************************************************
 LATTICE PARAMETERS (ANGSTROMS AND DEGREES) - BOHR = 0.5291772083 ANGSTROM
 PRIMITIVE CELL - CENTRING CODE 5/0 VOLUME=   217.445013 - DENSITY  0.916 g/cm^3
         A              B              C           ALPHA      BETA       GAMMA 
     6.74975718     6.74975718     6.74975718    60.000000  60.000000  60.000000
 *******************************************************************************
 ATOMS IN THE ASYMMETRIC UNIT    2 - ATOMS IN THE UNIT CELL:   10
     ATOM                 X/A                 Y/B                 Z/C    
 *******************************************************************************
      1 T   6 C     1.250000000000E-01  1.250000000000E-01  1.250000000000E-01
      2 F   6 C    -1.250000000000E-01 -1.250000000000E-01 -1.250000000000E-01
      3 T   6 C     3.588353605985E-02  3.588353605985E-02  3.588353605985E-02
      4 F   6 C     3.588353605985E-02  3.588353605985E-02  3.923493918205E-01
      5 F   6 C     3.923493918205E-01  3.588353605985E-02  3.588353605985E-02
      6 F   6 C     3.588353605985E-02  3.923493918205E-01  3.588353605985E-02
      7 F   6 C    -3.588353605985E-02 -3.588353605985E-02 -3.588353605985E-02
      8 F   6 C    -3.588353605985E-02 -3.588353605985E-02 -3.923493918205E-01
      9 F   6 C    -3.588353605985E-02 -3.923493918205E-01 -3.588353605985E-02
     10 F   6 C    -3.923493918205E-01 -3.588353605985E-02 -3.588353605985E-02

 TRANSFORMATION MATRIX PRIMITIVE-CRYSTALLOGRAPHIC CELL
 -1.0000  1.0000  1.0000  1.0000 -1.0000  1.0000  1.0000  1.0000 -1.0000

 *******************************************************************************
 CRYSTALLOGRAPHIC CELL (VOLUME=        869.78005042)
         A              B              C           ALPHA      BETA       GAMMA 
     9.54559815     9.54559815     9.54559815    90.000000  90.000000  90.000000

 COORDINATES IN THE CRYSTALLOGRAPHIC CELL
     ATOM                 X/A                 Y/B                 Z/C    
 *******************************************************************************
      1 T   6 C     1.250000000000E-01  1.250000000000E-01  1.250000000000E-01
      2 F   6 C    -1.250000000000E-01 -1.250000000000E-01 -1.250000000000E-01
      3 T   6 C     3.588353605985E-02  3.588353605985E-02  3.588353605985E-02
      4 F   6 C     2.141164639402E-01  2.141164639402E-01  3.588353605985E-02
      5 F   6 C     3.588353605985E-02  2.141164639402E-01  2.141164639402E-01
      6 F   6 C     2.141164639402E-01  3.588353605985E-02  2.141164639402E-01
      7 F   6 C    -3.588353605985E-02 -3.588353605985E-02 -3.588353605985E-02
      8 F   6 C    -2.141164639402E-01 -2.141164639402E-01 -3.588353605985E-02
      9 F   6 C    -2.141164639402E-01 -3.588353605985E-02 -2.141164639402E-01
     10 F   6 C    -3.588353605985E-02 -2.141164639402E-01 -2.141164639402E-01

 T = ATOM BELONGING TO THE ASYMMETRIC UNIT

 TOTAL ENERGY(DFT)(AU)(  5) -3.8059910456783E+02     DE (AU)   -1.350E-06

 UPDATED TRUST RADIUS     0.100E+01

 SYMMETRY ALLOWED FORCES  (COORDINATE, FORCE)

    1 -9.3313724E-04    2 -1.1360258E-04

 GRADIENT NORM     0.000940  GRADIENT THRESHOLD     0.500000

 EIGENVALUES OF THE ESTIMATED HESSIAN
  0.1380       2.759    

 PREDICTED ENERGY CHANGE    -0.160E-06

 MAX GRADIENT      0.000933  THRESHOLD              0.000450 CONVERGED NO
 RMS GRADIENT      0.000665  THRESHOLD              0.000300 CONVERGED NO
 MAX DISPLAC.      0.000334  THRESHOLD              0.001800 CONVERGED YES
 RMS DISPLAC.      0.000242  THRESHOLD              0.001200 CONVERGED YES
 TTTTTTTTTTTTTTTTTTTTTTTTTTTTTT OPTI        TELAPSE       15.21 TCPU       13.30
 *******************************************************************************
 COORDINATE AND CELL OPTIMIZATION - POINT    3
 *******************************************************************************
 LATTICE PARAMETERS (ANGSTROMS AND DEGREES) - BOHR = 0.5291772083 ANGSTROM
 PRIMITIVE CELL - CENTRING CODE 5/0 VOLUME=   217.441532 - DENSITY  0.916 g/cm^3
         A              B              C           ALPHA      BETA       GAMMA 
     6.74972116     6.74972116     6.74972116    60.000000  60.000000  60.000000
 *******************************************************************************
 ATOMS IN THE ASYMMETRIC UNIT    2 - ATOMS IN THE UNIT CELL:   10
     ATOM                 X/A                 Y/B                 Z/C    
 *******************************************************************************
      1 T   6 C     1.250000000000E-01  1.250000000000E-01  1.250000000000E-01
      2 F   6 C    -1.250000000000E-01 -1.250000000000E-01 -1.250000000000E-01
      3 T   6 C     3.587975786797E-02  3.587975786797E-02  3.587975786797E-02
      4 F   6 C     3.587975786797E-02  3.587975786797E-02  3.923607263961E-01
      5 F   6 C     3.923607263961E-01  3.587975786797E-02  3.587975786797E-02
      6 F   6 C     3.587975786797E-02  3.923607263961E-01  3.587975786797E-02
      7 F   6 C    -3.587975786797E-02 -3.587975786797E-02 -3.587975786797E-02
      8 F   6 C    -3.587975786797E-02 -3.587975786797E-02 -3.923607263961E-01
      9 F   6 C    -3.587975786797E-02 -3.923607263961E-01 -3.587975786797E-02
     10 F   6 C    -3.923607263961E-01 -3.587975786797E-02 -3.587975786797E-02

 TRANSFORMATION MATRIX PRIMITIVE-CRYSTALLOGRAPHIC CELL
 -1.0000  1.0000  1.0000  1.0000 -1.0000  1.0000  1.0000  1.0000 -1.0000

 *******************************************************************************
 CRYSTALLOGRAPHIC CELL (VOLUME=        869.76612718)
         A              B              C           ALPHA      BETA       GAMMA 
     9.54554721     9.54554721     9.54554721    90.000000  90.000000  90.000000

 COORDINATES IN THE CRYSTALLOGRAPHIC CELL
     ATOM                 X/A                 Y/B                 Z/C    
 *******************************************************************************
      1 T   6 C     1.250000000000E-01  1.250000000000E-01  1.250000000000E-01
      2 F   6 C    -1.250000000000E-01 -1.250000000000E-01 -1.250000000000E-01
      3 T   6 C     3.587975786797E-02  3.587975786797E-02  3.587975786797E-02
      4 F   6 C     2.141202421320E-01  2.141202421320E-01  3.587975786797E-02
      5 F   6 C     3.587975786797E-02  2.141202421320E-01  2.141202421320E-01
      6 F   6 C     2.141202421320E-01  3.587975786797E-02  2.141202421320E-01
      7 F   6 C    -3.587975786797E-02 -3.587975786797E-02 -3.587975786797E-02
      8 F   6 C    -2.141202421320E-01 -2.141202421320E-01 -3.587975786797E-02
      9 F   6 C    -2.141202421320E-01 -3.587975786797E-02 -2.141202421320E-01
     10 F   6 C    -3.587975786797E-02 -2.141202421320E-01 -2.141202421320E-01

 T = ATOM BELONGING TO THE ASYMMETRIC UNIT

 TOTAL ENERGY(DFT)(AU)(  3) -3.8059910456758E+02     DE (AU)    2.477E-10

 UPDATED TRUST RADIUS     0.857E-04

 SYMMETRY ALLOWED FORCES  (COORDINATE, FORCE)

    1  5.8611807E-05    2  2.0910049E-05

 GRADIENT NORM     0.000062  GRADIENT THRESHOLD     0.500000

 EIGENVALUES OF THE ESTIMATED HESSIAN
  0.1384       2.933    
 NEWTON STEP ( 0.9712628700E-04) EXCEEDS TRUST RADIUS ( 0.8572603903E-04)
 LEVEL SHIFT    -0.1478726463E-01

 PREDICTED ENERGY CHANGE    -0.124E-08

 MAX GRADIENT      0.000059  THRESHOLD              0.000450 CONVERGED YES
 RMS GRADIENT      0.000044  THRESHOLD              0.000300 CONVERGED YES
 MAX DISPLAC.      0.000085  THRESHOLD              0.001800 CONVERGED YES
 RMS DISPLAC.      0.000061  THRESHOLD              0.001200 CONVERGED YES

 CONVERGENCE TESTS SATISFIED AFTER   3 ENERGY AND GRADIENT CALCULATIONS
 +++++++++++++++++++++++++++++++++++++++++++++++++++++++++++++++++++++++++++++++
 FINALRUN OPTION: RE-STARTING OPTIMIZATION
 +++++++++++++++++++++++++++++++++++++++++++++++++++++++++++++++++++++++++++++++
 TTTTTTTTTTTTTTTTTTTTTTTTTTTTTT OPTI        TELAPSE       18.42 TCPU       16.45
 *******************************************************************************
 COORDINATE AND CELL OPTIMIZATION - POINT    4
 *******************************************************************************
 LATTICE PARAMETERS (ANGSTROMS AND DEGREES) - BOHR = 0.5291772083 ANGSTROM
 PRIMITIVE CELL - CENTRING CODE 5/0 VOLUME=   217.445328 - DENSITY  0.916 g/cm^3
         A              B              C           ALPHA      BETA       GAMMA 
     6.74976044     6.74976044     6.74976044    60.000000  60.000000  60.000000
 *******************************************************************************
 ATOMS IN THE ASYMMETRIC UNIT    2 - ATOMS IN THE UNIT CELL:   10
     ATOM                 X/A                 Y/B                 Z/C    
 *******************************************************************************
      1 T   6 C     1.250000000000E-01  1.250000000000E-01  1.250000000000E-01
      2 F   6 C    -1.250000000000E-01 -1.250000000000E-01 -1.250000000000E-01
      3 T   6 C     3.587986061788E-02  3.587986061788E-02  3.587986061788E-02
      4 F   6 C     3.587986061788E-02  3.587986061788E-02  3.923604181464E-01
      5 F   6 C     3.923604181464E-01  3.587986061788E-02  3.587986061788E-02
      6 F   6 C     3.587986061788E-02  3.923604181464E-01  3.587986061788E-02
      7 F   6 C    -3.587986061788E-02 -3.587986061788E-02 -3.587986061788E-02
      8 F   6 C    -3.587986061788E-02 -3.587986061788E-02 -3.923604181464E-01
      9 F   6 C    -3.587986061788E-02 -3.923604181464E-01 -3.587986061788E-02
     10 F   6 C    -3.923604181464E-01 -3.587986061788E-02 -3.587986061788E-02

 TRANSFORMATION MATRIX PRIMITIVE-CRYSTALLOGRAPHIC CELL
 -1.0000  1.0000  1.0000  1.0000 -1.0000  1.0000  1.0000  1.0000 -1.0000

 *******************************************************************************
 CRYSTALLOGRAPHIC CELL (VOLUME=        869.78131215)
         A              B              C           ALPHA      BETA       GAMMA 
     9.54560276     9.54560276     9.54560276    90.000000  90.000000  90.000000

 COORDINATES IN THE CRYSTALLOGRAPHIC CELL
     ATOM                 X/A                 Y/B                 Z/C    
 *******************************************************************************
      1 T   6 C     1.250000000000E-01  1.250000000000E-01  1.250000000000E-01
      2 F   6 C    -1.250000000000E-01 -1.250000000000E-01 -1.250000000000E-01
      3 T   6 C     3.587986061788E-02  3.587986061788E-02  3.587986061788E-02
      4 F   6 C     2.141201393821E-01  2.141201393821E-01  3.587986061788E-02
      5 F   6 C     3.587986061788E-02  2.141201393821E-01  2.141201393821E-01
      6 F   6 C     2.141201393821E-01  3.587986061788E-02  2.141201393821E-01
      7 F   6 C    -3.587986061788E-02 -3.587986061788E-02 -3.587986061788E-02
      8 F   6 C    -2.141201393821E-01 -2.141201393821E-01 -3.587986061788E-02
      9 F   6 C    -2.141201393821E-01 -3.587986061788E-02 -2.141201393821E-01
     10 F   6 C    -3.587986061788E-02 -2.141201393821E-01 -2.141201393821E-01

 T = ATOM BELONGING TO THE ASYMMETRIC UNIT

 REFERENCE GEOMETRY WILL BE CHANGED

 TOTAL ENERGY(DFT)(AU)(  3) -3.8059910506414E+02     DE (AU)   -4.966E-07

 SYMMETRY ALLOWED FORCES  (COORDINATE, FORCE)

    1 -6.0333140E-05    2 -2.1901985E-05

 GRADIENT NORM     0.000064  GRADIENT THRESHOLD     0.500000

 HESSIAN UPDATE SKIPPED

 EIGENVALUES OF THE ESTIMATED HESSIAN
  0.1384       2.933    
 NEWTON STEP ( 0.1026287692E-03) EXCEEDS TRUST RADIUS ( 0.8572603903E-04)
 LEVEL SHIFT    -0.2365589622E-01

 PREDICTED ENERGY CHANGE    -0.135E-08

 MAX GRADIENT      0.000060  THRESHOLD              0.000450 CONVERGED YES
 RMS GRADIENT      0.000045  THRESHOLD              0.000300 CONVERGED YES
 MAX DISPLAC.      0.000085  THRESHOLD              0.001800 CONVERGED YES
 RMS DISPLAC.      0.000061  THRESHOLD              0.001200 CONVERGED YES

 CONVERGENCE TESTS SATISFIED AFTER   4 ENERGY AND GRADIENT CALCULATIONS

 ******************************************************************
 * OPT END - CONVERGED * E(AU):  -3.805991050641E+02  POINTS    4 *
 ******************************************************************

 ENERGY CONTRIBUTIONS OF SEMICLASSICAL CORRECTIONS
  D3 DISPERSION ENERGY (AU)      -4.307193083749E-02
 
   BAND GAP:                      6.8348  eV 


 NEIGHBORS OF THE NON-EQUIVALENT ATOMS

 N = NUMBER OF NEIGHBORS AT DISTANCE R
    ATOM  N     R/ANG      R/AU   NEIGHBORS (ATOM LABELS AND CELL INDICES)
   1 C    4     1.4735     2.7844    3 C    0 0 0    4 C    0 0 0    5 C    0 0 0
                                     6 C    0 0 0
   1 C    4     2.6599     5.0265    7 C    0 0 0    8 C    0 0 1    9 C    0 1 0
                                    10 C    1 0 0
   1 C    4     4.1334     7.8109    2 C    0 0 0    2 C    1 0 0    2 C    0 1 0
                                     2 C    0 0 1
   1 C   12     4.8287     9.1249    7 C    1 0 0    7 C    0 1 0    7 C    0 0 1
                                     8 C    0 1 0    8 C    1 0 0    8 C    0 0 0
                                     9 C    0 0 1    9 C    0 0 0    9 C    1 0 0
                                    10 C    0 0 0   10 C    0 0 1   10 C    0 1 0
   1 C   12     5.6115    10.6043    3 C    1 0 0    3 C    0 1 0    3 C    0 0 1
                                     4 C    0 1-1    4 C    1 0-1    4 C    0 0-1
                                     5 C   -1 0 0    5 C   -1 0 1    5 C   -1 1 0
                                     6 C    0-1 1    6 C    0-1 0    6 C    1-1 0
   1 C   12     6.7498    12.7552    1 C   -1 0 0    1 C    1 0 0    1 C   -1 0 1
                                     1 C    1 0-1    1 C   -1 1 0    1 C    1-1 0
                                     1 C    0-1 0    1 C    0 1 0    1 C    0-1 1
                                     1 C    0 1-1    1 C    0 0-1    1 C    0 0 1

   3 C    1     1.1864     2.2420    7 C    0 0 0
   3 C    1     1.4735     2.7844    1 C    0 0 0
   3 C    3     2.4062     4.5470    4 C    0 0 0    5 C    0 0 0    6 C    0 0 0
   3 C    1     2.6599     5.0265    2 C    0 0 0
   3 C    6     3.4437     6.5076    8 C    0 0 0    8 C    0 0 1    9 C    0 0 0
                                     9 C    0 1 0   10 C    0 0 0   10 C    1 0 0
   3 C    3     4.3436     8.2082    4 C    0 0-1    5 C   -1 0 0    6 C    0-1 0

 TTTTTTTTTTTTTTTTTTTTTTTTTTTTTT AFTER FIRST TELAPSE       22.02 TCPU       19.65
 MMMMMMMMMMMMMMMMMMMMMMMMMMMMMMMMMMMMMMMMMMMMMMMMMMMMMMMMMMMMMMMMMMMMMMMMMMMMMMM
     ALPHA+BETA ELECTRONS
 MULLIKEN POPULATION ANALYSIS - NO. OF ELECTRONS   60.000000

  ATOM    Z CHARGE  A.O. POPULATION

   1 C    6  5.998  0.852  1.123  0.744  0.379  0.445  0.445  0.445  0.027
                    0.027  0.027  0.476  0.476  0.476  0.008  0.014  0.014
                    0.008  0.014
   2 C    6  5.998  0.852  1.123  0.744  0.379  0.445  0.445  0.445  0.027
                    0.027  0.027  0.476  0.476  0.476  0.008  0.014  0.014
                    0.008  0.014
   3 C    6  6.000  0.854  1.120  0.757  0.401  0.468  0.468  0.468 -0.058
                   -0.058 -0.058  0.536  0.536  0.536  0.006  0.006  0.006
                    0.006  0.006
   4 C    6  6.000  0.854  1.120  0.757  0.401  0.468  0.468  0.468 -0.058
                   -0.058 -0.058  0.536  0.536  0.536  0.006  0.006  0.006
                    0.006  0.006
   5 C    6  6.000  0.854  1.120  0.757  0.401  0.468  0.468  0.468 -0.058
                   -0.058 -0.058  0.536  0.536  0.536  0.006  0.006  0.006
                    0.006  0.006
   6 C    6  6.000  0.854  1.120  0.757  0.401  0.468  0.468  0.468 -0.058
                   -0.058 -0.058  0.536  0.536  0.536  0.006  0.006  0.006
                    0.006  0.006
   7 C    6  6.000  0.854  1.120  0.757  0.401  0.468  0.468  0.468 -0.058
                   -0.058 -0.058  0.536  0.536  0.536  0.006  0.006  0.006
                    0.006  0.006
   8 C    6  6.000  0.854  1.120  0.757  0.401  0.468  0.468  0.468 -0.058
                   -0.058 -0.058  0.536  0.536  0.536  0.006  0.006  0.006
                    0.006  0.006
   9 C    6  6.000  0.854  1.120  0.757  0.401  0.468  0.468  0.468 -0.058
                   -0.058 -0.058  0.536  0.536  0.536  0.006  0.006  0.006
                    0.006  0.006
  10 C    6  6.000  0.854  1.120  0.757  0.401  0.468  0.468  0.468 -0.058
                   -0.058 -0.058  0.536  0.536  0.536  0.006  0.006  0.006
                    0.006  0.006

  ATOM    Z CHARGE  SHELL POPULATION

   1 C    6  5.998  0.852  1.123  0.744  0.379  1.334  0.081  1.429  0.057
   2 C    6  5.998  0.852  1.123  0.744  0.379  1.334  0.081  1.429  0.057
   3 C    6  6.000  0.854  1.120  0.757  0.401  1.405 -0.173  1.608  0.029
   4 C    6  6.000  0.854  1.120  0.757  0.401  1.405 -0.173  1.608  0.029
   5 C    6  6.000  0.854  1.120  0.757  0.401  1.405 -0.173  1.608  0.029
   6 C    6  6.000  0.854  1.120  0.757  0.401  1.405 -0.173  1.608  0.029
   7 C    6  6.000  0.854  1.120  0.757  0.401  1.405 -0.173  1.608  0.029
   8 C    6  6.000  0.854  1.120  0.757  0.401  1.405 -0.173  1.608  0.029
   9 C    6  6.000  0.854  1.120  0.757  0.401  1.405 -0.173  1.608  0.029
  10 C    6  6.000  0.854  1.120  0.757  0.401  1.405 -0.173  1.608  0.029

 OVERLAP POPULATION CONDENSED TO ATOMS FOR FIRST   6 NEIGHBORS

 ATOM A   1 C    ATOM B     CELL      R(AB)/AU R(AB)/ANG    OVPOP(AB)
                  3 C    (  0  0  0)     2.784     1.473     0.346
                  7 C    (  0  0  0)     5.026     2.660    -0.031
                  2 C    (  0  0  0)     7.811     4.133     0.001
                  7 C    (  1  0  0)     9.125     4.829    -0.000
                  3 C    (  1  0  0)    10.604     5.612    -0.000
                  1 C    ( -1  0  0)    12.755     6.750    -0.000

 ATOM A   3 C    ATOM B     CELL      R(AB)/AU R(AB)/ANG    OVPOP(AB)
                  7 C    (  0  0  0)     2.242     1.186     0.857
                  1 C    (  0  0  0)     2.784     1.473     0.346
                  4 C    (  0  0  0)     4.547     2.406    -0.015
                  2 C    (  0  0  0)     5.026     2.660    -0.031
                  8 C    (  0  0  0)     6.508     3.444    -0.002
                  4 C    (  0  0 -1)     8.208     4.344    -0.000
 EIGENVECTORS IN FORTRAN UNIT 10

 FINAL OPTIMIZED GEOMETRY - DIMENSIONALITY OF THE SYSTEM      3
 (NON PERIODIC DIRECTION: LATTICE PARAMETER FORMALLY SET TO 500)
 *******************************************************************************
 LATTICE PARAMETERS (ANGSTROMS AND DEGREES) - BOHR = 0.5291772083 ANGSTROM
 PRIMITIVE CELL - CENTRING CODE 5/0 VOLUME=   217.445328 - DENSITY  0.916 g/cm^3
         A              B              C           ALPHA      BETA       GAMMA 
     6.74976044     6.74976044     6.74976044    60.000000  60.000000  60.000000
 *******************************************************************************
 ATOMS IN THE ASYMMETRIC UNIT    2 - ATOMS IN THE UNIT CELL:   10
     ATOM                 X/A                 Y/B                 Z/C    
 *******************************************************************************
      1 T   6 C     1.250000000000E-01  1.250000000000E-01  1.250000000000E-01
      2 F   6 C    -1.250000000000E-01 -1.250000000000E-01 -1.250000000000E-01
      3 T   6 C     3.587986061788E-02  3.587986061788E-02  3.587986061788E-02
      4 F   6 C     3.587986061788E-02  3.587986061788E-02  3.923604181464E-01
      5 F   6 C     3.923604181464E-01  3.587986061788E-02  3.587986061788E-02
      6 F   6 C     3.587986061788E-02  3.923604181464E-01  3.587986061788E-02
      7 F   6 C    -3.587986061788E-02 -3.587986061788E-02 -3.587986061788E-02
      8 F   6 C    -3.587986061788E-02 -3.587986061788E-02 -3.923604181464E-01
      9 F   6 C    -3.587986061788E-02 -3.923604181464E-01 -3.587986061788E-02
     10 F   6 C    -3.923604181464E-01 -3.587986061788E-02 -3.587986061788E-02

 TRANSFORMATION MATRIX PRIMITIVE-CRYSTALLOGRAPHIC CELL
 -1.0000  1.0000  1.0000  1.0000 -1.0000  1.0000  1.0000  1.0000 -1.0000

 *******************************************************************************
 CRYSTALLOGRAPHIC CELL (VOLUME=        869.78131215)
         A              B              C           ALPHA      BETA       GAMMA 
     9.54560276     9.54560276     9.54560276    90.000000  90.000000  90.000000

 COORDINATES IN THE CRYSTALLOGRAPHIC CELL
     ATOM                 X/A                 Y/B                 Z/C    
 *******************************************************************************
      1 T   6 C     1.250000000000E-01  1.250000000000E-01  1.250000000000E-01
      2 F   6 C    -1.250000000000E-01 -1.250000000000E-01 -1.250000000000E-01
      3 T   6 C     3.587986061788E-02  3.587986061788E-02  3.587986061788E-02
      4 F   6 C     2.141201393821E-01  2.141201393821E-01  3.587986061788E-02
      5 F   6 C     3.587986061788E-02  2.141201393821E-01  2.141201393821E-01
      6 F   6 C     2.141201393821E-01  3.587986061788E-02  2.141201393821E-01
      7 F   6 C    -3.587986061788E-02 -3.587986061788E-02 -3.587986061788E-02
      8 F   6 C    -2.141201393821E-01 -2.141201393821E-01 -3.587986061788E-02
      9 F   6 C    -2.141201393821E-01 -3.587986061788E-02 -2.141201393821E-01
     10 F   6 C    -3.587986061788E-02 -2.141201393821E-01 -2.141201393821E-01

 T = ATOM BELONGING TO THE ASYMMETRIC UNIT
 INFORMATION **** fort.34 **** GEOMETRY OUTPUT FILE

 DIRECT LATTICE VECTORS CARTESIAN COMPONENTS (ANGSTROM)
          X                    Y                    Z
   0.000000000000E+00   0.477280138203E+01   0.477280138203E+01
   0.477280138203E+01   0.000000000000E+00   0.477280138203E+01
   0.477280138203E+01   0.477280138203E+01   0.000000000000E+00


 CARTESIAN COORDINATES - PRIMITIVE CELL
 *******************************************************************************
 *      ATOM          X(ANGSTROM)         Y(ANGSTROM)         Z(ANGSTROM)
 *******************************************************************************
    1     6 C     1.193200345507E+00  1.193200345507E+00  1.193200345507E+00
    2     6 C    -1.193200345507E+00 -1.193200345507E+00 -1.193200345507E+00
    3     6 C     3.424948966879E-01  3.424948966879E-01  3.424948966879E-01
    4     6 C     2.043905794326E+00  2.043905794326E+00  3.424948966879E-01
    5     6 C     3.424948966879E-01  2.043905794326E+00  2.043905794326E+00
    6     6 C     2.043905794326E+00  3.424948966879E-01  2.043905794326E+00
    7     6 C    -3.424948966879E-01 -3.424948966879E-01 -3.424948966879E-01
    8     6 C    -2.043905794326E+00 -2.043905794326E+00 -3.424948966879E-01
    9     6 C    -2.043905794326E+00 -3.424948966879E-01 -2.043905794326E+00
   10     6 C    -3.424948966879E-01 -2.043905794326E+00 -2.043905794326E+00

 ****   48 SYMMOPS - TRANSLATORS IN FRACTIONAL UNITS
 **** MATRICES AND TRANSLATORS IN THE CRYSTALLOGRAPHIC REFERENCE FRAME
   V INV                    ROTATION MATRICES                   TRANSLATORS
   1   1  1.00  0.00  0.00  0.00  1.00  0.00  0.00  0.00  1.00  0.00  0.00  0.00
   2   2  0.00  1.00  0.00  1.00  0.00  0.00 -1.00 -1.00 -1.00  0.00  0.00  0.50
   3   3 -1.00 -1.00 -1.00  0.00  0.00  1.00  0.00  1.00  0.00  0.50  0.00  0.00
   4   4  0.00  0.00  1.00 -1.00 -1.00 -1.00  1.00  0.00  0.00  0.00  0.50  0.00
   5   6  0.00  0.00  1.00  1.00  0.00  0.00  0.00  1.00  0.00  0.00  0.00  0.00
   6   5  0.00  1.00  0.00  0.00  0.00  1.00  1.00  0.00  0.00  0.00  0.00  0.00
   7   8  1.00  0.00  0.00  0.00  0.00  1.00 -1.00 -1.00 -1.00  0.00  0.00  0.50
   8   7  1.00  0.00  0.00 -1.00 -1.00 -1.00  0.00  1.00  0.00  0.00  0.50  0.00
   9  10 -1.00 -1.00 -1.00  0.00  1.00  0.00  1.00  0.00  0.00  0.50  0.00  0.00
  10   9  0.00  0.00  1.00  0.00  1.00  0.00 -1.00 -1.00 -1.00  0.00  0.00  0.50
  11  12  0.00  1.00  0.00 -1.00 -1.00 -1.00  0.00  0.00  1.00  0.00  0.50  0.00
  12  11 -1.00 -1.00 -1.00  1.00  0.00  0.00  0.00  0.00  1.00  0.50  0.00  0.00
  13  13  0.00 -1.00  0.00 -1.00  0.00  0.00  0.00  0.00 -1.00  0.00  0.00  0.00
  14  14 -1.00  0.00  0.00  0.00 -1.00  0.00  1.00  1.00  1.00  0.00  0.00  0.50
  15  16  0.00  0.00 -1.00  1.00  1.00  1.00  0.00 -1.00  0.00  0.00  0.50  0.00
  16  15  1.00  1.00  1.00  0.00  0.00 -1.00 -1.00  0.00  0.00  0.50  0.00  0.00
  17  17 -1.00  0.00  0.00  0.00  0.00 -1.00  0.00 -1.00  0.00  0.00  0.00  0.00
  18  18  0.00  0.00 -1.00  0.00 -1.00  0.00 -1.00  0.00  0.00  0.00  0.00  0.00
  19  21  0.00  0.00 -1.00 -1.00  0.00  0.00  1.00  1.00  1.00  0.00  0.00  0.50
  20  22  1.00  1.00  1.00 -1.00  0.00  0.00  0.00 -1.00  0.00  0.50  0.00  0.00
  21  19  0.00 -1.00  0.00  1.00  1.00  1.00 -1.00  0.00  0.00  0.00  0.50  0.00
  22  20  0.00 -1.00  0.00  0.00  0.00 -1.00  1.00  1.00  1.00  0.00  0.00  0.50
  23  23  1.00  1.00  1.00  0.00 -1.00  0.00  0.00  0.00 -1.00  0.50  0.00  0.00
  24  24 -1.00  0.00  0.00  1.00  1.00  1.00  0.00  0.00 -1.00  0.00  0.50  0.00
  25  25 -1.00  0.00  0.00  0.00 -1.00  0.00  0.00  0.00 -1.00  0.00  0.00  0.00
  26  26  0.00 -1.00  0.00 -1.00  0.00  0.00  1.00  1.00  1.00  0.00  0.00  0.50
  27  27  1.00  1.00  1.00  0.00  0.00 -1.00  0.00 -1.00  0.00  0.50  0.00  0.00
  28  28  0.00  0.00 -1.00  1.00  1.00  1.00 -1.00  0.00  0.00  0.00  0.50  0.00
  29  30  0.00  0.00 -1.00 -1.00  0.00  0.00  0.00 -1.00  0.00  0.00  0.00  0.00
  30  29  0.00 -1.00  0.00  0.00  0.00 -1.00 -1.00  0.00  0.00  0.00  0.00  0.00
  31  32 -1.00  0.00  0.00  0.00  0.00 -1.00  1.00  1.00  1.00  0.00  0.00  0.50
  32  31 -1.00  0.00  0.00  1.00  1.00  1.00  0.00 -1.00  0.00  0.00  0.50  0.00
  33  34  1.00  1.00  1.00  0.00 -1.00  0.00 -1.00  0.00  0.00  0.50  0.00  0.00
  34  33  0.00  0.00 -1.00  0.00 -1.00  0.00  1.00  1.00  1.00  0.00  0.00  0.50
  35  36  0.00 -1.00  0.00  1.00  1.00  1.00  0.00  0.00 -1.00  0.00  0.50  0.00
  36  35  1.00  1.00  1.00 -1.00  0.00  0.00  0.00  0.00 -1.00  0.50  0.00  0.00
  37  37  0.00  1.00  0.00  1.00  0.00  0.00  0.00  0.00  1.00  0.00  0.00  0.00
  38  38  1.00  0.00  0.00  0.00  1.00  0.00 -1.00 -1.00 -1.00  0.00  0.00  0.50
  39  40  0.00  0.00  1.00 -1.00 -1.00 -1.00  0.00  1.00  0.00  0.00  0.50  0.00
  40  39 -1.00 -1.00 -1.00  0.00  0.00  1.00  1.00  0.00  0.00  0.50  0.00  0.00
  41  41  1.00  0.00  0.00  0.00  0.00  1.00  0.00  1.00  0.00  0.00  0.00  0.00
  42  42  0.00  0.00  1.00  0.00  1.00  0.00  1.00  0.00  0.00  0.00  0.00  0.00
  43  45  0.00  0.00  1.00  1.00  0.00  0.00 -1.00 -1.00 -1.00  0.00  0.00  0.50
  44  46 -1.00 -1.00 -1.00  1.00  0.00  0.00  0.00  1.00  0.00  0.50  0.00  0.00
  45  43  0.00  1.00  0.00 -1.00 -1.00 -1.00  1.00  0.00  0.00  0.00  0.50  0.00
  46  44  0.00  1.00  0.00  0.00  0.00  1.00 -1.00 -1.00 -1.00  0.00  0.00  0.50
  47  47 -1.00 -1.00 -1.00  0.00  1.00  0.00  0.00  0.00  1.00  0.50  0.00  0.00
  48  48  1.00  0.00  0.00 -1.00 -1.00 -1.00  0.00  0.00  1.00  0.00  0.50  0.00
 TTTTTTTTTTTTTTTTTTTTTTTTTTTTTT END         TELAPSE       22.33 TCPU       19.72
 EEEEEEEEEE TERMINATION  DATE 20 12 2023 TIME 19:34:02.6
NODE    0 CPU TIME =        19.719
NODE    1 CPU TIME =        20.347
NODE    2 CPU TIME =        20.729
NODE    3 CPU TIME =        20.460
NODE    4 CPU TIME =        21.046
NODE    5 CPU TIME =        20.389
NODE    6 CPU TIME =        20.441
NODE    7 CPU TIME =        20.876
NODE    8 CPU TIME =        20.371
NODE    9 CPU TIME =        20.825
NODE   10 CPU TIME =        20.148
NODE   11 CPU TIME =        20.313
NODE   12 CPU TIME =        20.366
NODE   13 CPU TIME =        21.097
NODE   14 CPU TIME =        20.475
NODE   15 CPU TIME =        20.452
NODE   16 CPU TIME =        20.620
NODE   17 CPU TIME =        20.571
NODE   18 CPU TIME =        20.272
NODE   19 CPU TIME =        20.787
NODE   20 CPU TIME =        21.041
NODE   21 CPU TIME =        21.205
NODE   22 CPU TIME =        20.835
NODE   23 CPU TIME =        21.050
NODE   24 CPU TIME =        20.642
NODE   25 CPU TIME =        20.057
NODE   26 CPU TIME =        20.257
NODE   27 CPU TIME =        20.341
NODE   28 CPU TIME =        20.420
NODE   29 CPU TIME =        19.928
NODE   30 CPU TIME =        20.319
NODE   31 CPU TIME =        20.594
    TOTAL CPU TIME =       656.994
