          60 PROCESSORS WORKING

         
 *******************************************************************************
 *                                                                             *
 *                               CRYSTAL23                                     *
 *                      public : 1.0.1 - October 2022                          *
 *                       HTTP://WWW.CRYSTAL.UNITO.IT                           *
 *                                                                             *
 *                              MAIN AUTHORS                                   *
 *                                                                             *
 *  R. DOVESI(1,11), V.R. SAUNDERS(2), C. ROETTI(1,11), R. ORLANDO(1,11),      *
 *  C.M. ZICOVICH-WILSON(1,3), F. PASCALE(4), B. CIVALLERI(1,11),              *
 *  K. DOLL(5), N.M. HARRISON(6), I.J. BUSH(7), Ph. D'ARCO(8),                 *
 *  M. LLUNELL(9), M. CAUSA'(10), Y. NOEL(8), L. MASCHIO(1,11), A. ERBA(1,11)  *
 *  M. RE'RAT(14), S. CASASSA(1,11), B.G. SEARLE(2), J.K. DESMARAIS(1)         *
 *                                                                             *
 *        CONTRIBUTIONS TO THE CODE HAVE ALSO BEEN GIVEN BY                    *
 *                                                                             *
 *  M. FERRABONE(1,11), M. DE LA PIERRE(1,11), M. FERRERO(1,11),               *
 *  J. BAIMA(1,11), E. ALBANESE(1,11), M.F. PEINTINGER(12), R. BAST(13),       *
 *  B. KIRTMAN(15), V. LACIVITA(1,11), R. DEMICHELIS(1,16)                     *
 *  G. BRANDEBURG(17), S. SALUSTRO(1,11), G. SANSONE(1,11)                     *
 *  M.T. RUGGIERO(18), L.E. DAGA(1), L. DONA'(1), A. COSSARD(1)                *
 *                                                                             *
 * (1) THEORETICAL CHEMISTRY GROUP - UNIVERSITA' DI TORINO - TORINO (ITALY)    *
 * (2) SCIENTIFIC COMPUTING DEPARTMENT - STFC DARESBURY (UK)                   *
 * (3) UNIVERSIDAD AUTONOMA DEL ESTADO DE MORELOS - CUERNAVACA (MEXICO)        *
 * (4) UNIVERSITE' DE LORRAINE - NANCY (FRANCE)                                *
 * (5) UNIVERSITAET STUTTGART- STUTTGART (GERMANY)                             *
 * (6) IMPERIAL COLLEGE - LONDON (UK)                                          *
 * (7) SCIENTIFIC COMPUTING DEPARTMENT - STFC RAL (UK)                         *
 * (8) UPMC - SORBONNE UNIVERSITES - PARIS (FRANCE)                            *
 * (9) UNIVERSIDAD DE BARCELONA - BARCELONA (SPAIN)                            *
 *(10) UNIVERSITA' DI NAPOLI "FEDERICO II" - NAPOLI (ITALY)                    *
 *(11) NIS - NANOSTRUCTURED INTERFACES AND SURFACES - TORINO (ITALY)           *
 *(12) MPI FUER CHEMISCHE ENERGIEKONVERSION - MUELHEIM AN DER RUHR (GERMANY)   *
 *(13) UNIVERSITY OF TROMSO - TROMSO (NORWAY)                                  *
 *(14) UNIVERSITE' DE PAU ET DES PAYS DE L'ADOUR - PAU (FRANCE)                *
 *(15) UNIVERSITY OF CALIFORNIA SANTA BARBARA - SANTA BARBARA (USA)            *
 *(16) CURTIN UNIVERSITY - PERTH (AUSTRALIA)                                   *
 *(17) UNIVERSITY COLLEGE LONDON - LONDON (UK)                                 *
 *(18) UNIVERSITY OF VERMONT - BURLINGTON (USA)                                *
 *                                                                             *
 *******************************************************************************
 EEEEEEEEEE STARTING  DATE 18 03 2024 TIME 16:30:33.6
 3LG_BF4_2x2_ver3                                                                

 SLAB CALCULATION
 SYSTEM AND LATTICE                   :  OBLIQUE     
 TWO-SIDED PLANE GROUP N.  1          :  P 1             
 CORRESPONDING SPACE GROUP N.   1

 LATTICE PARAMETERS  (ANGSTROMS AND DEGREES) - CONVENTIONAL CELL
           A              B            GAMMA
        8.49390        8.49390      119.99990


 NUMBER OF IRREDUCIBLE ATOMS IN THE CONVENTIONAL CELL:   77

 INPUT COORDINATES

 ATOM AT. N.              COORDINATES
   1   6     8.331000000000E-02  2.499900000000E-01  8.739600000000E+00
   2   6     2.446900000000E-01  4.632700000000E-01  1.865800000000E+01
   3   6     4.166400000000E-01  8.333000000000E-02  8.738400000000E+00
   4   6     7.802000000000E-02  2.966000000000E-01  1.865800000000E+01
   5   6     4.166400000000E-01  4.166600000000E-01  8.739600000000E+00
   6   6     7.802000000000E-02  1.299300000000E-01  1.865800000000E+01
   7   6     8.331000000000E-02  4.166600000000E-01  8.738400000000E+00
   8   6     2.446900000000E-01  1.299300000000E-01  1.865800000000E+01
   9   6     2.499800000000E-01  8.333000000000E-02  8.739600000000E+00
  10   6     4.113600000000E-01  2.966000000000E-01  1.865800000000E+01
  11   6     2.499800000000E-01  2.499900000000E-01  8.738400000000E+00
  12   6     4.113600000000E-01  4.632700000000E-01  1.865800000000E+01
  13   5     2.402300000000E-01  2.897000000000E-01  1.533680000000E+01
  14   9     1.531300000000E-01  2.476300000000E-01  1.424120000000E+01
  15   9     1.981700000000E-01  2.025900000000E-01  1.643280000000E+01
  16   9     2.926000000000E-01  4.906600000000E-01  1.568480000000E+01
  17   9     4.412000000000E-01  3.420600000000E-01  1.498920000000E+01
  18   6     7.818000000000E-02  1.273800000000E-01  1.183240000000E+01
  19   6     2.448500000000E-01  1.273800000000E-01  1.183200000000E+01
  20   6     2.448500000000E-01  4.607100000000E-01  1.183200000000E+01
  21   6     7.818000000000E-02  2.940500000000E-01  1.183200000000E+01
  22   6     4.115100000000E-01  2.940500000000E-01  1.183200000000E+01
  23   6     4.115100000000E-01  4.607100000000E-01  1.183200000000E+01
  24   6     5.833100000000E-01  2.499900000000E-01  8.739600000000E+00
  25   6     7.446900000000E-01  4.632700000000E-01  1.865800000000E+01
  26   6     9.166500000000E-01  8.333000000000E-02  8.738400000000E+00
  27   6     5.780200000000E-01  2.966000000000E-01  1.865800000000E+01
  28   6     9.166500000000E-01  4.166600000000E-01  8.739600000000E+00
  29   6     5.780200000000E-01  1.299300000000E-01  1.865800000000E+01
  30   6     5.833100000000E-01  4.166600000000E-01  8.738400000000E+00
  31   6     7.446900000000E-01  1.299300000000E-01  1.865800000000E+01
  32   6     7.499800000000E-01  8.333000000000E-02  8.739600000000E+00
  33   6     9.113600000000E-01  2.966000000000E-01  1.865800000000E+01
  34   6     7.499800000000E-01  2.499900000000E-01  8.738400000000E+00
  35   6     9.113600000000E-01  4.632700000000E-01  1.865800000000E+01
  36   6     5.781800000000E-01  1.273800000000E-01  1.183240000000E+01
  37   6     7.448500000000E-01  1.273800000000E-01  1.183200000000E+01
  38   6     7.448500000000E-01  4.607100000000E-01  1.183200000000E+01
  39   6     5.781800000000E-01  2.940500000000E-01  1.183200000000E+01
  40   6     9.115100000000E-01  2.940500000000E-01  1.183200000000E+01
  41   6     9.115100000000E-01  4.607100000000E-01  1.183200000000E+01
  42   6     8.331000000000E-02  7.499900000000E-01  8.739600000000E+00
  43   6     2.446900000000E-01  9.632700000000E-01  1.865800000000E+01
  44   6     4.166400000000E-01  5.833300000000E-01  8.738400000000E+00
  45   6     7.802000000000E-02  7.966000000000E-01  1.865800000000E+01
  46   6     4.166400000000E-01  9.166600000000E-01  8.739600000000E+00
  47   6     7.802000000000E-02  6.299300000000E-01  1.865800000000E+01
  48   6     8.331000000000E-02  9.166600000000E-01  8.738400000000E+00
  49   6     2.446900000000E-01  6.299300000000E-01  1.865800000000E+01
  50   6     2.499800000000E-01  5.833300000000E-01  8.739600000000E+00
  51   6     4.113600000000E-01  7.966000000000E-01  1.865800000000E+01
  52   6     2.499800000000E-01  7.499900000000E-01  8.738400000000E+00
  53   6     4.113600000000E-01  9.632700000000E-01  1.865800000000E+01
  54   6     7.818000000000E-02  6.273800000000E-01  1.183240000000E+01
  55   6     2.448500000000E-01  6.273800000000E-01  1.183200000000E+01
  56   6     2.448500000000E-01  9.607100000000E-01  1.183200000000E+01
  57   6     7.818000000000E-02  7.940500000000E-01  1.183200000000E+01
  58   6     4.115100000000E-01  7.940500000000E-01  1.183200000000E+01
  59   6     4.115100000000E-01  9.607100000000E-01  1.183200000000E+01
  60   6     5.833100000000E-01  7.499900000000E-01  8.739600000000E+00
  61   6     7.446900000000E-01  9.632700000000E-01  1.865800000000E+01
  62   6     9.166500000000E-01  5.833300000000E-01  8.738400000000E+00
  63   6     5.780200000000E-01  7.966000000000E-01  1.865800000000E+01
  64   6     9.166500000000E-01  9.166600000000E-01  8.739600000000E+00
  65   6     5.780200000000E-01  6.299300000000E-01  1.865800000000E+01
  66   6     5.833100000000E-01  9.166600000000E-01  8.738400000000E+00
  67   6     7.446900000000E-01  6.299300000000E-01  1.865800000000E+01
  68   6     7.499800000000E-01  5.833300000000E-01  8.739600000000E+00
  69   6     9.113600000000E-01  7.966000000000E-01  1.865800000000E+01
  70   6     7.499800000000E-01  7.499900000000E-01  8.738400000000E+00
  71   6     9.113600000000E-01  9.632700000000E-01  1.865800000000E+01
  72   6     5.781800000000E-01  6.273800000000E-01  1.183240000000E+01
  73   6     7.448500000000E-01  6.273800000000E-01  1.183200000000E+01
  74   6     7.448500000000E-01  9.607100000000E-01  1.183200000000E+01
  75   6     5.781800000000E-01  7.940500000000E-01  1.183200000000E+01
  76   6     9.115100000000E-01  7.940500000000E-01  1.183200000000E+01
  77   6     9.115100000000E-01  9.607100000000E-01  1.183200000000E+01

 *******************************************************************************

 << INFORMATION >>: FROM NOW ON, ALL COORDINATES REFER TO THE PRIMITIVE CELL

 *******************************************************************************

 LATTICE PARAMETERS  (ANGSTROMS AND DEGREES) - PRIMITIVE CELL
       A          B          C        ALPHA      BETA     GAMMA        VOLUME
    8.49390    8.49390  500.00000    90.00000  90.00000 119.99990     62.480624

 COORDINATES OF THE EQUIVALENT ATOMS 
 (X AND Y IN FRACTIONARY UNITS, Z IN ANGSTROMS)

 N. ATOM EQUIV AT. N.          X                  Y                  Z

   1   1   1    6 C     8.33100000000E-02  2.49990000000E-01  8.73960000000E+00

   2   2   1    6 C     2.44690000000E-01  4.63270000000E-01  1.86580000000E+01

   3   3   1    6 C     4.16640000000E-01  8.33300000000E-02  8.73840000000E+00

   4   4   1    6 C     7.80200000000E-02  2.96600000000E-01  1.86580000000E+01

   5   5   1    6 C     4.16640000000E-01  4.16660000000E-01  8.73960000000E+00

   6   6   1    6 C     7.80200000000E-02  1.29930000000E-01  1.86580000000E+01

   7   7   1    6 C     8.33100000000E-02  4.16660000000E-01  8.73840000000E+00

   8   8   1    6 C     2.44690000000E-01  1.29930000000E-01  1.86580000000E+01

   9   9   1    6 C     2.49980000000E-01  8.33300000000E-02  8.73960000000E+00

  10  10   1    6 C     4.11360000000E-01  2.96600000000E-01  1.86580000000E+01

  11  11   1    6 C     2.49980000000E-01  2.49990000000E-01  8.73840000000E+00

  12  12   1    6 C     4.11360000000E-01  4.63270000000E-01  1.86580000000E+01

  13  13   1    5 B     2.40230000000E-01  2.89700000000E-01  1.53368000000E+01

  14  14   1    9 F     1.53130000000E-01  2.47630000000E-01  1.42412000000E+01

  15  15   1    9 F     1.98170000000E-01  2.02590000000E-01  1.64328000000E+01

  16  16   1    9 F     2.92600000000E-01  4.90660000000E-01  1.56848000000E+01

  17  17   1    9 F     4.41200000000E-01  3.42060000000E-01  1.49892000000E+01

  18  18   1    6 C     7.81800000000E-02  1.27380000000E-01  1.18324000000E+01

  19  19   1    6 C     2.44850000000E-01  1.27380000000E-01  1.18320000000E+01

  20  20   1    6 C     2.44850000000E-01  4.60710000000E-01  1.18320000000E+01

  21  21   1    6 C     7.81800000000E-02  2.94050000000E-01  1.18320000000E+01

  22  22   1    6 C     4.11510000000E-01  2.94050000000E-01  1.18320000000E+01

  23  23   1    6 C     4.11510000000E-01  4.60710000000E-01  1.18320000000E+01

  24  24   1    6 C    -4.16690000000E-01  2.49990000000E-01  8.73960000000E+00

  25  25   1    6 C    -2.55310000000E-01  4.63270000000E-01  1.86580000000E+01

  26  26   1    6 C    -8.33500000000E-02  8.33300000000E-02  8.73840000000E+00

  27  27   1    6 C    -4.21980000000E-01  2.96600000000E-01  1.86580000000E+01

  28  28   1    6 C    -8.33500000000E-02  4.16660000000E-01  8.73960000000E+00

  29  29   1    6 C    -4.21980000000E-01  1.29930000000E-01  1.86580000000E+01

  30  30   1    6 C    -4.16690000000E-01  4.16660000000E-01  8.73840000000E+00

  31  31   1    6 C    -2.55310000000E-01  1.29930000000E-01  1.86580000000E+01

  32  32   1    6 C    -2.50020000000E-01  8.33300000000E-02  8.73960000000E+00

  33  33   1    6 C    -8.86400000000E-02  2.96600000000E-01  1.86580000000E+01

  34  34   1    6 C    -2.50020000000E-01  2.49990000000E-01  8.73840000000E+00

  35  35   1    6 C    -8.86400000000E-02  4.63270000000E-01  1.86580000000E+01

  36  36   1    6 C    -4.21820000000E-01  1.27380000000E-01  1.18324000000E+01

  37  37   1    6 C    -2.55150000000E-01  1.27380000000E-01  1.18320000000E+01

  38  38   1    6 C    -2.55150000000E-01  4.60710000000E-01  1.18320000000E+01

  39  39   1    6 C    -4.21820000000E-01  2.94050000000E-01  1.18320000000E+01

  40  40   1    6 C    -8.84900000000E-02  2.94050000000E-01  1.18320000000E+01

  41  41   1    6 C    -8.84900000000E-02  4.60710000000E-01  1.18320000000E+01

  42  42   1    6 C     8.33100000000E-02 -2.50010000000E-01  8.73960000000E+00

  43  43   1    6 C     2.44690000000E-01 -3.67300000000E-02  1.86580000000E+01

  44  44   1    6 C     4.16640000000E-01 -4.16670000000E-01  8.73840000000E+00

  45  45   1    6 C     7.80200000000E-02 -2.03400000000E-01  1.86580000000E+01

  46  46   1    6 C     4.16640000000E-01 -8.33400000000E-02  8.73960000000E+00

  47  47   1    6 C     7.80200000000E-02 -3.70070000000E-01  1.86580000000E+01

  48  48   1    6 C     8.33100000000E-02 -8.33400000000E-02  8.73840000000E+00

  49  49   1    6 C     2.44690000000E-01 -3.70070000000E-01  1.86580000000E+01

  50  50   1    6 C     2.49980000000E-01 -4.16670000000E-01  8.73960000000E+00

  51  51   1    6 C     4.11360000000E-01 -2.03400000000E-01  1.86580000000E+01

  52  52   1    6 C     2.49980000000E-01 -2.50010000000E-01  8.73840000000E+00

  53  53   1    6 C     4.11360000000E-01 -3.67300000000E-02  1.86580000000E+01

  54  54   1    6 C     7.81800000000E-02 -3.72620000000E-01  1.18324000000E+01

  55  55   1    6 C     2.44850000000E-01 -3.72620000000E-01  1.18320000000E+01

  56  56   1    6 C     2.44850000000E-01 -3.92900000000E-02  1.18320000000E+01

  57  57   1    6 C     7.81800000000E-02 -2.05950000000E-01  1.18320000000E+01

  58  58   1    6 C     4.11510000000E-01 -2.05950000000E-01  1.18320000000E+01

  59  59   1    6 C     4.11510000000E-01 -3.92900000000E-02  1.18320000000E+01

  60  60   1    6 C    -4.16690000000E-01 -2.50010000000E-01  8.73960000000E+00

  61  61   1    6 C    -2.55310000000E-01 -3.67300000000E-02  1.86580000000E+01

  62  62   1    6 C    -8.33500000000E-02 -4.16670000000E-01  8.73840000000E+00

  63  63   1    6 C    -4.21980000000E-01 -2.03400000000E-01  1.86580000000E+01

  64  64   1    6 C    -8.33500000000E-02 -8.33400000000E-02  8.73960000000E+00

  65  65   1    6 C    -4.21980000000E-01 -3.70070000000E-01  1.86580000000E+01

  66  66   1    6 C    -4.16690000000E-01 -8.33400000000E-02  8.73840000000E+00

  67  67   1    6 C    -2.55310000000E-01 -3.70070000000E-01  1.86580000000E+01

  68  68   1    6 C    -2.50020000000E-01 -4.16670000000E-01  8.73960000000E+00

  69  69   1    6 C    -8.86400000000E-02 -2.03400000000E-01  1.86580000000E+01

  70  70   1    6 C    -2.50020000000E-01 -2.50010000000E-01  8.73840000000E+00

  71  71   1    6 C    -8.86400000000E-02 -3.67300000000E-02  1.86580000000E+01

  72  72   1    6 C    -4.21820000000E-01 -3.72620000000E-01  1.18324000000E+01

  73  73   1    6 C    -2.55150000000E-01 -3.72620000000E-01  1.18320000000E+01

  74  74   1    6 C    -2.55150000000E-01 -3.92900000000E-02  1.18320000000E+01

  75  75   1    6 C    -4.21820000000E-01 -2.05950000000E-01  1.18320000000E+01

  76  76   1    6 C    -8.84900000000E-02 -2.05950000000E-01  1.18320000000E+01

  77  77   1    6 C    -8.84900000000E-02 -3.92900000000E-02  1.18320000000E+01

 NUMBER OF SYMMETRY OPERATORS         :    1
 *******************************************************************************
 * GEOMETRY EDITING - INPUT COORDINATES ARE GIVEN IN ANGSTROM         
 *******************************************************************************
 INFORMATION **** NEW DEFAULT **** FINALRUN 4 FOR GEOMETRY OPTIMIZATIONS
 INFORMATION **** NEW DEFAULT **** OPTGEOM OPTIMIZES BOTH ATOMIC COORDINATES AND CELL PARAMETERS
 INFORMATION **** NEW DEFAULT **** TOL. ON ATOMIC DISP TO REDEFINE REF. GEOMETRY: 0.8 Angs
 INFORMATION **** NEW DEFAULT **** N POINTS TO REDEFINE REF. GEOMETRY: N OF OPT DEGS OF FREEDOM
 INFORMATION **** NEW DEFAULT **** TOL. ON ENERGY TO REDEFINE REF. GEOMETRY: 10**-3*(5*N. ATOMS)
 INFORMATION **** MAXCYCLE ****   MAXIMUM NUMBER OF OPTIMIZATION CYCLES         800

 IMPORTANT INFORMATION:
 THE COORDINATE SYSTEM ADOPTED IN THE OPTIMIZATION IS NOT IN
 GENERAL HOMOGENEOUS UNITS. FOR THIS REASON THE GRADIENT AND 
 HESSIAN MATRIX IN TERMS OF THIS SYSTEM ARE GIVEN WITHOUT
 UNITS. FOR MORE DETAILS SEE THE MANUAL.

 *******************************************************************************
 COMBINED CELL/ATOM OPTIMIZATION CONTROL

 INITIAL TRUST RADIUS         0.50000 MAXIMUM TRUST RADIUS               4.00000
 MAXIMUM GRADIENT COMPONENT   0.00045 MAXIMUM DISPLACEMENT COMPONENT     0.00180
 R.M.S. OF GRADIENT COMPONENT 0.00030 R.M.S. OF DISPLACEMENT COMPONENTS  0.00120
 THRESHOLD ON ENERGY CHANGE 0.100E-06 EXTRAPOLATING POLYNOMIAL ORDER           2
 MAXIMUM ALLOWED NUMBER OF STEPS  800 SORTING OF ENERGY POINTS:               NO
 ANALYTICAL  GRADIENT                 HESSIAN UPDATING                      BFGS
 STEP SIZE NUMERICAL GRADIENT 0.00100
 INITIAL HESSIAN MATRIX: SCHLEGEL MODEL 2
 *******************************************************************************


 GCALCO - MAX INDICES DIRECT LATTICE VECTOR    83    83     0
 NO.OF VECTORS CREATED 6999 STARS 1785 RMAX   705.70270 BOHR

 GEOMETRY FOR WAVE FUNCTION - DIMENSIONALITY OF THE SYSTEM    2
 (NON PERIODIC DIRECTION: LATTICE PARAMETER FORMALLY SET TO 500)
 *******************************************************************************
 LATTICE PARAMETERS (ANGSTROMS AND DEGREES) - BOHR = 0.5291772083 ANGSTROM
 PRIMITIVE CELL
         A              B              C           ALPHA      BETA       GAMMA 
     8.49390000     8.49390000   500.00000000    90.000000  90.000000 119.999900
 *******************************************************************************
 ATOMS IN THE ASYMMETRIC UNIT   77 - ATOMS IN THE UNIT CELL:   77
     ATOM                 X/A                 Y/B             Z(ANGSTROM)
 *******************************************************************************
      1 T   6 C     8.331000000000E-02  2.499900000000E-01  8.739600000000E+00
      2 T   6 C     2.446900000000E-01  4.632700000000E-01  1.865800000000E+01
      3 T   6 C     4.166400000000E-01  8.333000000000E-02  8.738400000000E+00
      4 T   6 C     7.802000000000E-02  2.966000000000E-01  1.865800000000E+01
      5 T   6 C     4.166400000000E-01  4.166600000000E-01  8.739600000000E+00
      6 T   6 C     7.802000000000E-02  1.299300000000E-01  1.865800000000E+01
      7 T   6 C     8.331000000000E-02  4.166600000000E-01  8.738400000000E+00
      8 T   6 C     2.446900000000E-01  1.299300000000E-01  1.865800000000E+01
      9 T   6 C     2.499800000000E-01  8.333000000000E-02  8.739600000000E+00
     10 T   6 C     4.113600000000E-01  2.966000000000E-01  1.865800000000E+01
     11 T   6 C     2.499800000000E-01  2.499900000000E-01  8.738400000000E+00
     12 T   6 C     4.113600000000E-01  4.632700000000E-01  1.865800000000E+01
     13 T   5 B     2.402300000000E-01  2.897000000000E-01  1.533680000000E+01
     14 T   9 F     1.531300000000E-01  2.476300000000E-01  1.424120000000E+01
     15 T   9 F     1.981700000000E-01  2.025900000000E-01  1.643280000000E+01
     16 T   9 F     2.926000000000E-01  4.906600000000E-01  1.568480000000E+01
     17 T   9 F     4.412000000000E-01  3.420600000000E-01  1.498920000000E+01
     18 T   6 C     7.818000000000E-02  1.273800000000E-01  1.183240000000E+01
     19 T   6 C     2.448500000000E-01  1.273800000000E-01  1.183200000000E+01
     20 T   6 C     2.448500000000E-01  4.607100000000E-01  1.183200000000E+01
     21 T   6 C     7.818000000000E-02  2.940500000000E-01  1.183200000000E+01
     22 T   6 C     4.115100000000E-01  2.940500000000E-01  1.183200000000E+01
     23 T   6 C     4.115100000000E-01  4.607100000000E-01  1.183200000000E+01
     24 T   6 C    -4.166900000000E-01  2.499900000000E-01  8.739600000000E+00
     25 T   6 C    -2.553100000000E-01  4.632700000000E-01  1.865800000000E+01
     26 T   6 C    -8.335000000000E-02  8.333000000000E-02  8.738400000000E+00
     27 T   6 C    -4.219800000000E-01  2.966000000000E-01  1.865800000000E+01
     28 T   6 C    -8.335000000000E-02  4.166600000000E-01  8.739600000000E+00
     29 T   6 C    -4.219800000000E-01  1.299300000000E-01  1.865800000000E+01
     30 T   6 C    -4.166900000000E-01  4.166600000000E-01  8.738400000000E+00
     31 T   6 C    -2.553100000000E-01  1.299300000000E-01  1.865800000000E+01
     32 T   6 C    -2.500200000000E-01  8.333000000000E-02  8.739600000000E+00
     33 T   6 C    -8.864000000000E-02  2.966000000000E-01  1.865800000000E+01
     34 T   6 C    -2.500200000000E-01  2.499900000000E-01  8.738400000000E+00
     35 T   6 C    -8.864000000000E-02  4.632700000000E-01  1.865800000000E+01
     36 T   6 C    -4.218200000000E-01  1.273800000000E-01  1.183240000000E+01
     37 T   6 C    -2.551500000000E-01  1.273800000000E-01  1.183200000000E+01
     38 T   6 C    -2.551500000000E-01  4.607100000000E-01  1.183200000000E+01
     39 T   6 C    -4.218200000000E-01  2.940500000000E-01  1.183200000000E+01
     40 T   6 C    -8.849000000000E-02  2.940500000000E-01  1.183200000000E+01
     41 T   6 C    -8.849000000000E-02  4.607100000000E-01  1.183200000000E+01
     42 T   6 C     8.331000000000E-02 -2.500100000000E-01  8.739600000000E+00
     43 T   6 C     2.446900000000E-01 -3.673000000000E-02  1.865800000000E+01
     44 T   6 C     4.166400000000E-01 -4.166700000000E-01  8.738400000000E+00
     45 T   6 C     7.802000000000E-02 -2.034000000000E-01  1.865800000000E+01
     46 T   6 C     4.166400000000E-01 -8.334000000000E-02  8.739600000000E+00
     47 T   6 C     7.802000000000E-02 -3.700700000000E-01  1.865800000000E+01
     48 T   6 C     8.331000000000E-02 -8.334000000000E-02  8.738400000000E+00
     49 T   6 C     2.446900000000E-01 -3.700700000000E-01  1.865800000000E+01
     50 T   6 C     2.499800000000E-01 -4.166700000000E-01  8.739600000000E+00
     51 T   6 C     4.113600000000E-01 -2.034000000000E-01  1.865800000000E+01
     52 T   6 C     2.499800000000E-01 -2.500100000000E-01  8.738400000000E+00
     53 T   6 C     4.113600000000E-01 -3.673000000000E-02  1.865800000000E+01
     54 T   6 C     7.818000000000E-02 -3.726200000000E-01  1.183240000000E+01
     55 T   6 C     2.448500000000E-01 -3.726200000000E-01  1.183200000000E+01
     56 T   6 C     2.448500000000E-01 -3.929000000000E-02  1.183200000000E+01
     57 T   6 C     7.818000000000E-02 -2.059500000000E-01  1.183200000000E+01
     58 T   6 C     4.115100000000E-01 -2.059500000000E-01  1.183200000000E+01
     59 T   6 C     4.115100000000E-01 -3.929000000000E-02  1.183200000000E+01
     60 T   6 C    -4.166900000000E-01 -2.500100000000E-01  8.739600000000E+00
     61 T   6 C    -2.553100000000E-01 -3.673000000000E-02  1.865800000000E+01
     62 T   6 C    -8.335000000000E-02 -4.166700000000E-01  8.738400000000E+00
     63 T   6 C    -4.219800000000E-01 -2.034000000000E-01  1.865800000000E+01
     64 T   6 C    -8.335000000000E-02 -8.334000000000E-02  8.739600000000E+00
     65 T   6 C    -4.219800000000E-01 -3.700700000000E-01  1.865800000000E+01
     66 T   6 C    -4.166900000000E-01 -8.334000000000E-02  8.738400000000E+00
     67 T   6 C    -2.553100000000E-01 -3.700700000000E-01  1.865800000000E+01
     68 T   6 C    -2.500200000000E-01 -4.166700000000E-01  8.739600000000E+00
     69 T   6 C    -8.864000000000E-02 -2.034000000000E-01  1.865800000000E+01
     70 T   6 C    -2.500200000000E-01 -2.500100000000E-01  8.738400000000E+00
     71 T   6 C    -8.864000000000E-02 -3.673000000000E-02  1.865800000000E+01
     72 T   6 C    -4.218200000000E-01 -3.726200000000E-01  1.183240000000E+01
     73 T   6 C    -2.551500000000E-01 -3.726200000000E-01  1.183200000000E+01
     74 T   6 C    -2.551500000000E-01 -3.929000000000E-02  1.183200000000E+01
     75 T   6 C    -4.218200000000E-01 -2.059500000000E-01  1.183200000000E+01
     76 T   6 C    -8.849000000000E-02 -2.059500000000E-01  1.183200000000E+01
     77 T   6 C    -8.849000000000E-02 -3.929000000000E-02  1.183200000000E+01

 T = ATOM BELONGING TO THE ASYMMETRIC UNIT

 ****    1 SYMMOPS - TRANSLATORS IN FRACTIONAL UNITS
 **** MATRICES AND TRANSLATORS IN THE CRYSTALLOGRAPHIC REFERENCE FRAME
   V INV                    ROTATION MATRICES                   TRANSLATORS
   1   1  1.00 -0.00  0.00  0.00  1.00  0.00  0.00 -0.00  1.00  0.00  0.00  0.00

 DIRECT LATTICE VECTORS CARTESIAN COMPONENTS (ANGSTROM)
          X                    Y                    Z
   0.735594058952E+01  -0.424693716147E+01   0.000000000000E+00
   0.000000000000E+00   0.849390000000E+01   0.000000000000E+00
   0.000000000000E+00   0.000000000000E+00   0.500000000000E+03


 CARTESIAN COORDINATES - PRIMITIVE CELL
 *******************************************************************************
 *      ATOM          X(ANGSTROM)         Y(ANGSTROM)         Z(ANGSTROM)
 *******************************************************************************
    1     6 C     6.128234105129E-01  1.769577726078E+00  8.739600000000E+00
    2     6 C     1.799925102850E+00  2.895785998960E+00  1.865800000000E+01
    3     6 C     3.064779087217E+00 -1.061647211954E+00  8.738400000000E+00
    4     6 C     5.739104847943E-01  2.187944702662E+00  1.865800000000E+01
    5     6 C     3.064779087217E+00  1.769624475046E+00  8.739600000000E+00
    6     6 C     5.739104847943E-01  7.722663896623E-01  1.865800000000E+01
    7     6 C     6.128234105129E-01  3.185256039078E+00  8.738400000000E+00
    8     6 C     1.799925102850E+00  6.442937296035E-02  1.865800000000E+01
    9     6 C     1.838838028568E+00 -3.538526646238E-01  8.739600000000E+00
   10     6 C     3.025939720905E+00  7.722706692584E-01  1.865800000000E+01
   11     6 C     1.838838028568E+00  1.061740709376E+00  8.738400000000E+00
   12     6 C     3.025939720905E+00  2.187948982258E+00  1.865800000000E+01
   13     5 B     1.767117607820E+00  1.440441115700E+00  1.533680000000E+01
   14     9 F     1.126415182473E+00  1.453010969464E+00  1.424120000000E+01
   15     9 F     1.457726746625E+00  8.791636637119E-01  1.643280000000E+01
   16     9 F     2.152348216493E+00  2.924963160554E+00  1.568480000000E+01
   17     9 F     3.245440988096E+00  1.031674758360E+00  1.498920000000E+01
   18     6 C     5.750874352886E-01  7.499274347164E-01  1.183240000000E+01
   19     6 C     1.801102053344E+00  4.209041801452E-02  1.183200000000E+01
   20     6 C     1.801102053344E+00  2.873362105015E+00  1.183200000000E+01
   21     6 C     5.750874352886E-01  2.165605747716E+00  1.183200000000E+01
   22     6 C     3.027043111993E+00  7.499741836842E-01  1.183200000000E+01
   23     6 C     3.027043111993E+00  2.165567557684E+00  1.183200000000E+01
   24     6 C     4.290793705273E+00 -3.538908546560E-01  8.739600000000E+00
   25     6 C    -1.878045191910E+00 -3.474645420306E+00  1.865800000000E+01
   26     6 C    -6.131176481365E-01  1.061778899408E+00  8.738400000000E+00
   27     6 C     4.251880779554E+00  6.447612192816E-02  1.865800000000E+01
   28     6 C    -6.131176481365E-01  3.893050586408E+00  8.739600000000E+00
   29     6 C    -3.104059809965E+00  2.895734970396E+00  1.865800000000E+01
   30     6 C     4.290793705273E+00  1.061787458344E+00  8.738400000000E+00
   31     6 C    -1.878045191910E+00  2.187897953694E+00  1.865800000000E+01
   32     6 C    -1.839132266192E+00  1.769615916110E+00  8.739600000000E+00
   33     6 C    -6.520305738550E-01  2.895739249993E+00  1.865800000000E+01
   34     6 C    -1.839132266192E+00  3.185209290110E+00  8.738400000000E+00
   35     6 C    -6.520305738550E-01 -4.182482437007E+00  1.865800000000E+01
   36     6 C    -3.102882859471E+00  2.873396015451E+00  1.183240000000E+01
   37     6 C    -1.876868241416E+00  2.165558998749E+00  1.183200000000E+01
   38     6 C    -1.876868241416E+00 -3.497069314251E+00  1.183200000000E+01
   39     6 C     4.253057730048E+00  4.213716698233E-02  1.183200000000E+01
   40     6 C    -6.509271827666E-01  2.873442764418E+00  1.183200000000E+01
   41     6 C    -6.509271827666E-01 -4.204863861582E+00  1.183200000000E+01
   42     6 C     6.128234105129E-01 -2.477372273922E+00  8.739600000000E+00
   43     6 C     1.799925102850E+00 -1.351164001040E+00  1.865800000000E+01
   44     6 C     3.064779087217E+00  3.185302788046E+00  8.738400000000E+00
   45     6 C     5.739104847943E-01 -2.059005297338E+00  1.865800000000E+01
   46     6 C     3.064779087217E+00 -2.477325524954E+00  8.739600000000E+00
   47     6 C     5.739104847943E-01 -3.474683610338E+00  1.865800000000E+01
   48     6 C     6.128234105129E-01 -1.061693960922E+00  8.738400000000E+00
   49     6 C     1.799925102850E+00 -4.182520627040E+00  1.865800000000E+01
   50     6 C     1.838838028568E+00  3.893097335376E+00  8.739600000000E+00
   51     6 C    -4.330000868615E+00  7.722578307266E-01  1.865800000000E+01
   52     6 C     1.838838028568E+00 -3.185209290624E+00  8.738400000000E+00
   53     6 C     3.025939720905E+00 -2.059001017742E+00  1.865800000000E+01
   54     6 C     5.750874352886E-01 -3.497022565284E+00  1.183240000000E+01
   55     6 C     1.801102053344E+00 -4.204859581985E+00  1.183200000000E+01
   56     6 C     1.801102053344E+00 -1.373587894985E+00  1.183200000000E+01
   57     6 C     5.750874352886E-01 -2.081344252284E+00  1.183200000000E+01
   58     6 C    -4.328897477526E+00  7.499613451524E-01  1.183200000000E+01
   59     6 C     3.027043111993E+00 -2.081382442316E+00  1.183200000000E+01
   60     6 C    -3.065146884247E+00 -3.539036931878E-01  8.739600000000E+00
   61     6 C    -1.878045191910E+00  7.723045796944E-01  1.865800000000E+01
   62     6 C    -6.131176481365E-01 -3.185171100592E+00  8.738400000000E+00
   63     6 C    -3.104059809965E+00  6.446328339634E-02  1.865800000000E+01
   64     6 C    -6.131176481365E-01 -3.538994135916E-01  8.739600000000E+00
   65     6 C    -3.104059809965E+00 -1.351215029604E+00  1.865800000000E+01
   66     6 C    -3.065146884247E+00  1.061774619812E+00  8.738400000000E+00
   67     6 C    -1.878045191910E+00 -2.059052046306E+00  1.865800000000E+01
   68     6 C    -1.839132266192E+00 -2.477334083890E+00  8.739600000000E+00
   69     6 C    -6.520305738550E-01 -1.351210750007E+00  1.865800000000E+01
   70     6 C    -1.839132266192E+00 -1.061740709890E+00  8.738400000000E+00
   71     6 C    -6.520305738550E-01  6.446756299254E-02  1.865800000000E+01
   72     6 C    -3.102882859471E+00 -1.373553984549E+00  1.183240000000E+01
   73     6 C    -1.876868241416E+00 -2.081391001251E+00  1.183200000000E+01
   74     6 C    -1.876868241416E+00  7.498806857486E-01  1.183200000000E+01
   75     6 C    -3.102882859471E+00  4.212432845051E-02  1.183200000000E+01
   76     6 C    -6.509271827666E-01 -1.373507235582E+00  1.183200000000E+01
   77     6 C    -6.509271827666E-01  4.208613841832E-02  1.183200000000E+01

 *******************************************************************************
 STARTING BASIS SET HANDLING 
 *******************************************************************************

 Loading internal basis set: SOL-DEF2-MSVP       

 Please cite in your publication:
 L. Dona', J. G. Brandenburg and B. Civalleri, J. Chem. Phys., 151, 121101 (2019
 )                                                                              
                                                                                
                    

 *******************************************************************************
 LOCAL ATOMIC FUNCTIONS BASIS SET
 *******************************************************************************
   ATOM   X(AU)   Y(AU)   Z(AU)  N. TYPE  EXPONENT  S COEF   P COEF   D/F/G COEF
 *******************************************************************************
   1 C    1.158   3.344  16.515
                                  1 S  
                                         3.624E+03 1.634E-03 0.000E+00 0.000E+00
                                         5.440E+02 1.252E-02 0.000E+00 0.000E+00
                                         1.237E+02 6.211E-02 0.000E+00 0.000E+00
                                         3.476E+01 2.182E-01 0.000E+00 0.000E+00
                                         1.093E+01 4.980E-01 0.000E+00 0.000E+00
                                  2 S  
                                         3.574E+00 1.000E+00 0.000E+00 0.000E+00
                                  3 S  
                                         7.742E-01 1.000E+00 0.000E+00 0.000E+00
                                  4 S  
                                         2.330E-01 1.000E+00 0.000E+00 0.000E+00
                           5-     7 P  
                                         9.443E+00 0.000E+00 3.790E-02 0.000E+00
                                         2.002E+00 0.000E+00 2.082E-01 0.000E+00
                                         5.463E-01 0.000E+00 5.047E-01 0.000E+00
                           8-    10 P  
                                         1.820E-01 0.000E+00 1.000E+00 0.000E+00
                          11-    15 D  
                                         8.880E-01 0.000E+00 0.000E+00 1.000E+00
   2 C    3.401   5.472  35.259
   3 C    5.792  -2.006  16.513
   4 C    1.085   4.135  35.259
   5 C    5.792   3.344  16.515
   6 C    1.085   1.459  35.259
   7 C    1.158   6.019  16.513
   8 C    3.401   0.122  35.259
   9 C    3.475  -0.669  16.515
  10 C    5.718   1.459  35.259
  11 C    3.475   2.006  16.513
  12 C    5.718   4.135  35.259
  13 B    3.339   2.722  28.982
                                181 S  
                                         2.410E+03 1.755E-03 0.000E+00 0.000E+00
                                         3.619E+02 1.344E-02 0.000E+00 0.000E+00
                                         8.231E+01 6.637E-02 0.000E+00 0.000E+00
                                         2.311E+01 2.303E-01 0.000E+00 0.000E+00
                                         7.252E+00 5.150E-01 0.000E+00 0.000E+00
                                182 S  
                                         2.367E+00 1.000E+00 0.000E+00 0.000E+00
                                183 S  
                                         5.533E-01 1.000E+00 0.000E+00 0.000E+00
                                184 S  
                                         1.716E-01 1.000E+00 0.000E+00 0.000E+00
                         185-   187 P  
                                         6.002E+00 0.000E+00-3.555E-02 0.000E+00
                                         1.240E+00 0.000E+00-1.983E-01 0.000E+00
                                         3.367E-01 0.000E+00-5.048E-01 0.000E+00
                         188-   190 P  
                                         1.256E-01 0.000E+00 1.000E+00 0.000E+00
                         191-   195 D  
                                         8.880E-01 0.000E+00 0.000E+00 1.000E+00
  14 F    2.129   2.746  26.912
                                196 S  
                                         8.710E+03 1.394E-03 0.000E+00 0.000E+00
                                         1.307E+03 1.070E-02 0.000E+00 0.000E+00
                                         2.974E+02 5.339E-02 0.000E+00 0.000E+00
                                         8.360E+01 1.911E-01 0.000E+00 0.000E+00
                                         2.639E+01 4.499E-01 0.000E+00 0.000E+00
                                197 S  
                                         8.650E+00 1.000E+00 0.000E+00 0.000E+00
                                198 S  
                                         1.712E+00 1.000E+00 0.000E+00 0.000E+00
                                199 S  
                                         4.941E-01 1.000E+00 0.000E+00 0.000E+00
                         200-   202 P  
                                         2.267E+01 0.000E+00 3.403E-02 0.000E+00
                                         4.976E+00 0.000E+00 1.787E-01 0.000E+00
                                         1.348E+00 0.000E+00 3.850E-01 0.000E+00
                         203-   205 P  
                                         3.778E-01 0.000E+00 1.000E+00 0.000E+00
                         206-   210 D  
                                         5.550E-01 0.000E+00 0.000E+00 1.000E+00
  15 F    2.755   1.661  31.053
  16 F    4.067   5.527  29.640
  17 F    6.133   1.950  28.325
  18 C    1.087   1.417  22.360
  19 C    3.404   0.080  22.359
  20 C    3.404   5.430  22.359
  21 C    1.087   4.092  22.359
  22 C    5.720   1.417  22.359
  23 C    5.720   4.092  22.359
  24 C    8.108  -0.669  16.515
  25 C   -3.549  -6.566  35.259
  26 C   -1.159   2.006  16.513
  27 C    8.035   0.122  35.259
  28 C   -1.159   7.357  16.515
  29 C   -5.866   5.472  35.259
  30 C    8.108   2.006  16.513
  31 C   -3.549   4.135  35.259
  32 C   -3.475   3.344  16.515
  33 C   -1.232   5.472  35.259
  34 C   -3.475   6.019  16.513
  35 C   -1.232  -7.904  35.259
  36 C   -5.864   5.430  22.360
  37 C   -3.547   4.092  22.359
  38 C   -3.547  -6.609  22.359
  39 C    8.037   0.080  22.359
  40 C   -1.230   5.430  22.359
  41 C   -1.230  -7.946  22.359
  42 C    1.158  -4.682  16.515
  43 C    3.401  -2.553  35.259
  44 C    5.792   6.019  16.513
  45 C    1.085  -3.891  35.259
  46 C    5.792  -4.681  16.515
  47 C    1.085  -6.566  35.259
  48 C    1.158  -2.006  16.513
  49 C    3.401  -7.904  35.259
  50 C    3.475   7.357  16.515
  51 C   -8.183   1.459  35.259
  52 C    3.475  -6.019  16.513
  53 C    5.718  -3.891  35.259
  54 C    1.087  -6.608  22.360
  55 C    3.404  -7.946  22.359
  56 C    3.404  -2.596  22.359
  57 C    1.087  -3.933  22.359
  58 C   -8.180   1.417  22.359
  59 C    5.720  -3.933  22.359
  60 C   -5.792  -0.669  16.515
  61 C   -3.549   1.459  35.259
  62 C   -1.159  -6.019  16.513
  63 C   -5.866   0.122  35.259
  64 C   -1.159  -0.669  16.515
  65 C   -5.866  -2.553  35.259
  66 C   -5.792   2.006  16.513
  67 C   -3.549  -3.891  35.259
  68 C   -3.475  -4.681  16.515
  69 C   -1.232  -2.553  35.259
  70 C   -3.475  -2.006  16.513
  71 C   -1.232   0.122  35.259
  72 C   -5.864  -2.596  22.360
  73 C   -3.547  -3.933  22.359
  74 C   -3.547   1.417  22.359
  75 C   -5.864   0.080  22.359
  76 C   -1.230  -2.596  22.359
  77 C   -1.230   0.080  22.359

 *******************************************************************************
 FINISHED BASIS SET HANDLING 
 *******************************************************************************

 INFORMATION **** SET_MPP **** PCRYSTAL CALCULATION
 INFORMATION **** READM2 **** NEW DEFAULT: FOCK/KS MATRIX MIXING SET TO 30 %
 INFORMATION **** READM2 **** NEW DEFAULT: FULL DIRECT SCF MODE
 INFORMATION **** READM2 **** NEW DEFAULT: COULOMB BIPOLAR BUFFER SET TO 32 Mb
 INFORMATION **** READM2 **** NEW DEFAULT: EXCHANGE BIPOLAR BUFFER SET TO 32 Mb

 *******************************************************************************
 NEW DEFAULT: DFT INTEGRATION GRID INCREASED TO XLGRID
 NEW DEFAULT: DIIS ACCELERATOR ACTIVE
 USE KEYWORD NODIIS TO TURN IT OFF
 *******************************************************************************

 WARNING **** RDDFTP **** HSEsol-HJS ACTIVE
 RANGE SEPARATION - OMEGA:   0.110000000000000     
 WARNING **** RDDFTP **** HSEsol-3c has to be combined with sol-def2-mSVP basis set
 INFORMATION **** TOLINTEG **** COULOMB AND EXCHANGE SERIES TOLERANCES MODIFIED
 INFORMATION **** TOLDEE **** SCF TOL ON TOTAL ENERGY SET TO           7
 INFORMATION **** MAXCYCLE **** MAX NUMBER OF SCF CYCLES SET TO         800
 INFORMATION **** PPAN ****  MULLIKEN POPULATION ANALYSIS AT THE END OF SCF
 *******************************************************************************
 N. OF ATOMS PER CELL        77  COULOMB OVERLAP TOL         (T1) 10**   -7
 NUMBER OF SHELLS           539  COULOMB PENETRATION TOL     (T2) 10**   -7
 NUMBER OF AO              1155  EXCHANGE OVERLAP TOL        (T3) 10**   -7
 N. OF ELECTRONS PER CELL   473  EXCHANGE PSEUDO OVP (F(G))  (T4) 10**   -9
 CORE ELECTRONS PER CELL    154  EXCHANGE PSEUDO OVP (P(G))  (T5) 10**  -30
 N. OF SYMMETRY OPERATORS     1  POLE ORDER IN MONO ZONE                  4
 *******************************************************************************
 TYPE OF CALCULATION :  UNRESTRICTED OPEN SHELL
 KOHN-SHAM HAMILTONIAN

 (EXCHANGE)[CORRELATION] FUNCTIONAL:(HSEsol GGA)[PBEsol]

 RANGE-SEPARATED HYBRID FUNCTIONAL 
 OMEGA (SHORT-RANGE)[LONG-RANGE]:(    0.1100)[    0.0000]

 HYBRID EXCHANGE - PERCENTAGE OF FOCK EXCHANGE    25.0000

 SPIN POLARIZED DFT SELECTED

 CAPPA:IS1  6;IS2  6;IS3  1; K PTS MONK NET  20; SYMMOPS:K SPACE   2;G SPACE   1

 *******************************************************************************
 MAX NUMBER OF SCF CYCLES     800  CONVERGENCE ON DELTAP        10**-17
 WEIGHT OF F(I) IN F(I+1)      30% CONVERGENCE ON ENERGY        10**- 7
 SHRINK. FACT.(MONKH.)    6  6  1  NUMBER OF K POINTS IN THE IBZ     20
 SHRINKING FACTOR(GILAT NET)   12  NUMBER OF K POINTS(GILAT NET)     74
 *******************************************************************************
 *** K POINTS COORDINATES (OBLIQUE COORDINATES IN UNITS OF IS =  6)
   1-R(  0  0  0)   2-C(  1  0  0)   3-C(  2  0  0)   4-R(  3  0  0)
   5-C(  0  1  0)   6-C(  1  1  0)   7-C(  2  1  0)   8-C(  3  1  0)
   9-C(  4  1  0)  10-C(  5  1  0)  11-C(  0  2  0)  12-C(  1  2  0)
  13-C(  2  2  0)  14-C(  3  2  0)  15-C(  4  2  0)  16-C(  5  2  0)
  17-R(  0  3  0)  18-C(  1  3  0)  19-C(  2  3  0)  20-R(  3  3  0)

 DIRECT LATTICE VECTORS COMPON. (A.U.)     RECIP. LATTICE VECTORS COMPON. (A.U.) 
        X            Y            Z              X            Y            Z
   13.9007132   -8.0255481    0.0000000      0.4520045    0.0000000    0.0000000
    0.0000000   16.0511448    0.0000000      0.2260016    0.3914478    0.0000000
    0.0000000    0.0000000  944.8630670      0.0000000    0.0000000    0.0066498

 DISK SPACE FOR EIGENVECTORS (FTN 10)    48024900 REALS

 SYMMETRY ADAPTION OF THE BLOCH FUNCTIONS DISABLED
 TTTTTTTTTTTTTTTTTTTTTTTTTTTTTT gordsh1     TELAPSE        1.68 TCPU        0.70

 MATRIX SIZE: P(G) 3971995, F(G)  391149, P(G) IRR 1990201, F(G) IRR  392399
 MAX G-VECTOR INDEX FOR 1- AND 2-ELECTRON INTEGRALS  31

 TTTTTTTTTTTTTTTTTTTTTTTTTTTTTT INPUT       TELAPSE        1.98 TCPU        1.00

 NEIGHBORS OF THE NON-EQUIVALENT ATOMS

 N = NUMBER OF NEIGHBORS AT DISTANCE R
    ATOM  N     R/ANG      R/AU   NEIGHBORS (ATOM LABELS AND CELL INDICES)
   1 C    1     1.4156     2.6751   26 C    0 0 0
   1 C    2     1.4157     2.6752    7 C    0 0 0   11 C    0 0 0
   1 C    2     2.4520     4.6335    9 C    0 0 0   28 C    0 0 0
   1 C    3     2.4520     4.6335   32 C    0 0 0   64 C    0 0 0    5 C    0 0 0
   1 C    1     2.4520     4.6337   50 C    0 0 0
   1 C    2     2.8313     5.3503   34 C    0 0 0   48 C    0 0 0

   2 C    1     1.4156     2.6751   49 C    0 1 0
   2 C    1     1.4157     2.6752   12 C    0 0 0
   2 C    1     1.4157     2.6752    4 C    0 0 0
   2 C    1     2.4520     4.6335   47 C    0 1 0
   2 C    3     2.4520     4.6335   65 C    1 1 0   33 C    0 0 0   51 C    1 1 0
   2 C    1     2.4520     4.6337   10 C    0 0 0

   3 C    1     1.4156     2.6751    9 C    0 0 0
   3 C    1     1.4156     2.6752   24 C    0 0 0
   3 C    1     1.4157     2.6752   46 C    0 0 0
   3 C    1     2.4519     4.6334   11 C    0 0 0
   3 C    2     2.4520     4.6335   30 C    0 0 0   48 C    0 0 0
   3 C    1     2.4520     4.6337   66 C    1 0 0

   4 C    1     1.4156     2.6751   33 C    0 0 0
   4 C    1     1.4157     2.6752    6 C    0 0 0
   4 C    1     1.4157     2.6752    2 C    0 0 0
   4 C    1     2.4520     4.6335   35 C    0 1 0
   4 C    3     2.4520     4.6335   71 C    0 0 0   31 C    0 0 0   49 C    0 1 0
   4 C    1     2.4520     4.6337    8 C    0 0 0

   5 C    1     1.4156     2.6752   11 C    0 0 0
   5 C    2     1.4157     2.6752   30 C    0 0 0   44 C    0 0 0
   5 C    1     2.4520     4.6335   50 C    0 0 0
   5 C    3     2.4520     4.6335    9 C    0 0 0    1 C    0 0 0   60 C    1 1 0
   5 C    1     2.4520     4.6337   24 C    0 0 0
   5 C    1     2.4520     4.6337   68 C    1 1 0

   6 C    1     1.4156     2.6751   71 C    0 0 0
   6 C    2     1.4157     2.6752    4 C    0 0 0    8 C    0 0 0
   6 C    1     2.3967     4.5291   15 F    0 0 0
   6 C    2     2.4520     4.6335   33 C    0 0 0   43 C    0 0 0
   6 C    2     2.4520     4.6335   61 C    0 0 0   69 C    0 0 0
   6 C    2     2.4520     4.6337    2 C    0 0 0   10 C    0 0 0

   7 C    1     1.4156     2.6751   28 C    0 0 0
   7 C    1     1.4157     2.6752    1 C    0 0 0
   7 C    1     1.4157     2.6752   50 C    0 0 0
   7 C    1     2.4520     4.6335   62 C    0 1 0
   7 C    4     2.4520     4.6335   26 C    0 0 0   34 C    0 0 0   44 C    0 0 0
                                    52 C    0 1 0
   7 C    1     2.4520     4.6337   11 C    0 0 0

   8 C    1     1.4156     2.6751   43 C    0 0 0
   8 C    1     1.4157     2.6752    6 C    0 0 0
   8 C    1     1.4157     2.6752   10 C    0 0 0
   8 C    1     2.3942     4.5245   15 F    0 0 0
   8 C    1     2.4520     4.6335   53 C    0 0 0
   8 C    3     2.4520     4.6335   71 C    0 0 0   27 C    0 0 0   45 C    0 0 0

   9 C    2     1.4156     2.6751    3 C    0 0 0   11 C    0 0 0
   9 C    1     1.4157     2.6752   48 C    0 0 0
   9 C    2     2.4520     4.6335    1 C    0 0 0   46 C    0 0 0
   9 C    3     2.4520     4.6335    5 C    0 0 0   24 C    0 0 0   64 C    0 0 0
   9 C    1     2.4520     4.6337   42 C    0 0 0
   9 C    1     2.8313     5.3503   26 C    0 0 0

  10 C    1     1.4156     2.6751   27 C    0 0 0
  10 C    1     1.4157     2.6752   12 C    0 0 0
  10 C    1     1.4157     2.6752    8 C    0 0 0
  10 C    1     2.4520     4.6335   29 C    1 0 0
  10 C    3     2.4520     4.6335   65 C    1 1 0   25 C    1 1 0   43 C    0 0 0
  10 C    1     2.4520     4.6337    2 C    0 0 0

  11 C    1     1.4156     2.6751    9 C    0 0 0
  11 C    1     1.4156     2.6752    5 C    0 0 0
  11 C    1     1.4157     2.6752    1 C    0 0 0
  11 C    1     2.4519     4.6334    3 C    0 0 0
  11 C    3     2.4520     4.6335   26 C    0 0 0   30 C    0 0 0   48 C    0 0 0
  11 C    1     2.4520     4.6337    7 C    0 0 0

  12 C    1     1.4156     2.6751   65 C    1 1 0
  12 C    2     1.4157     2.6752    2 C    0 0 0   10 C    0 0 0
  12 C    2     2.4520     4.6335   27 C    0 0 0   49 C    0 1 0
  12 C    2     2.4520     4.6335   63 C    1 1 0   67 C    1 1 0
  12 C    2     2.4520     4.6337    4 C    0 0 0    8 C    0 0 0
  12 C    2     2.8313     5.3503   25 C    1 1 0   51 C    1 1 0

  13 B    1     1.2693     2.3985   14 F    0 0 0
  13 B    1     1.2696     2.3993   15 F    0 0 0
  13 B    1     1.5727     2.9719   16 F    0 0 0
  13 B    1     1.5727     2.9720   17 F    0 0 0
  13 B    1     3.5917     6.7874    6 C    0 0 0
  13 B    1     3.5951     6.7938    8 C    0 0 0

  14 F    1     1.2693     2.3985   13 B    0 0 0
  14 F    1     2.2863     4.3205   17 F    0 0 0
  14 F    1     2.2896     4.3267   15 F    0 0 0
  14 F    1     2.3029     4.3518   16 F    0 0 0
  14 F    1     2.5692     4.8550   18 C    0 0 0
  14 F    1     2.5722     4.8607   21 C    0 0 0

  15 F    1     1.2696     2.3993   13 B    0 0 0
  15 F    1     2.2863     4.3205   16 F    0 0 0
  15 F    1     2.2896     4.3267   14 F    0 0 0
  15 F    1     2.3029     4.3518   17 F    0 0 0
  15 F    1     2.3942     4.5245    8 C    0 0 0
  15 F    1     2.3967     4.5291    6 C    0 0 0

  16 F    1     1.5727     2.9719   13 B    0 0 0
  16 F    1     2.2863     4.3205   15 F    0 0 0
  16 F    1     2.2942     4.3354   17 F    0 0 0
  16 F    1     2.3029     4.3518   14 F    0 0 0
  16 F    1     2.9942     5.6581    2 C    0 0 0
  16 F    1     3.1853     6.0194   12 C    0 0 0

  17 F    1     1.5727     2.9720   13 B    0 0 0
  17 F    1     2.2863     4.3205   14 F    0 0 0
  17 F    1     2.2942     4.3354   16 F    0 0 0
  17 F    1     2.3029     4.3518   15 F    0 0 0
  17 F    1     3.1773     6.0041   22 C    0 0 0
  17 F    1     3.3617     6.3528   23 C    0 0 0

  18 C    2     1.4157     2.6752   19 C    0 0 0   21 C    0 0 0
  18 C    1     1.4157     2.6752   77 C    0 0 0
  18 C    4     2.4520     4.6335   20 C    0 0 0   22 C    0 0 0   74 C    0 0 0
                                    76 C    0 0 0
  18 C    2     2.4520     4.6337   40 C    0 0 0   56 C    0 0 0
  18 C    1     2.5692     4.8550   14 F    0 0 0
  18 C    2     2.8313     5.3503   37 C    0 0 0   57 C    0 0 0

  19 C    1     1.4156     2.6752   22 C    0 0 0
  19 C    1     1.4157     2.6752   56 C    0 0 0
  19 C    1     1.4157     2.6752   18 C    0 0 0
  19 C    1     2.4520     4.6335   59 C    0 0 0
  19 C    3     2.4520     4.6335   23 C    0 0 0   39 C    0 0 0   57 C    0 0 0
  19 C    1     2.4520     4.6337   21 C    0 0 0

  20 C    1     1.4156     2.6751   23 C    0 0 0
  20 C    1     1.4156     2.6752   21 C    0 0 0
  20 C    1     1.4157     2.6752   55 C    0 1 0
  20 C    1     2.4519     4.6334   22 C    0 0 0
  20 C    2     2.4520     4.6335   18 C    0 0 0   72 C    1 1 0
  20 C    1     2.4520     4.6337   54 C    0 1 0

  21 C    1     1.4156     2.6752   20 C    0 0 0
  21 C    1     1.4157     2.6752   40 C    0 0 0
  21 C    1     1.4157     2.6752   18 C    0 0 0
  21 C    1     2.4520     4.6335   41 C    0 1 0
  21 C    3     2.4520     4.6335   23 C    0 0 0   37 C    0 0 0   55 C    0 1 0
  21 C    1     2.4520     4.6337   19 C    0 0 0

  22 C    1     1.4156     2.6751   23 C    0 0 0
  22 C    1     1.4156     2.6752   19 C    0 0 0
  22 C    1     1.4157     2.6752   39 C    0 0 0
  22 C    1     2.4519     4.6334   20 C    0 0 0
  22 C    2     2.4520     4.6335   18 C    0 0 0   72 C    1 1 0
  22 C    1     2.4520     4.6337   36 C    1 0 0

  23 C    2     1.4156     2.6751   20 C    0 0 0   22 C    0 0 0
  23 C    1     1.4157     2.6752   72 C    1 1 0
  23 C    2     2.4520     4.6335   39 C    0 0 0   55 C    0 1 0
  23 C    2     2.4520     4.6335   19 C    0 0 0   21 C    0 0 0
  23 C    2     2.4520     4.6337   73 C    1 1 0   75 C    1 1 0
  23 C    1     2.8313     5.3503   18 C    0 0 0

  24 C    1     1.4156     2.6752    3 C    0 0 0
  24 C    2     1.4157     2.6752   30 C    0 0 0   34 C    1 0 0
  24 C    1     2.4520     4.6335   32 C    1 0 0
  24 C    2     2.4520     4.6335    9 C    0 0 0   46 C    0 0 0
  24 C    1     2.4520     4.6337    5 C    0 0 0
  24 C    2     2.4520     4.6337   28 C    1 0 0   68 C    1 1 0

  25 C    1     1.4156     2.6751   67 C    0 0 0
  25 C    1     1.4157     2.6752   35 C    0 0 0
  25 C    1     1.4157     2.6752   27 C   -1-1 0
  25 C    1     2.4520     4.6335   65 C    0 0 0
  25 C    3     2.4520     4.6335   47 C    0 0 0   10 C   -1-1 0   69 C    0 0 0
  25 C    1     2.4520     4.6337   33 C    0-1 0

  26 C    1     1.4156     2.6751    1 C    0 0 0
  26 C    2     1.4157     2.6752   32 C    0 0 0   64 C    0 0 0
  26 C    2     2.4520     4.6335   34 C    0 0 0   48 C    0 0 0
  26 C    2     2.4520     4.6335    7 C    0 0 0   11 C    0 0 0
  26 C    2     2.4520     4.6337   66 C    0 0 0   70 C    0 0 0
  26 C    2     2.8313     5.3503    9 C    0 0 0   28 C    0 0 0

  27 C    1     1.4156     2.6751   10 C    0 0 0
  27 C    1     1.4157     2.6752   29 C    1 0 0
  27 C    1     1.4157     2.6752   25 C    1 1 0
  27 C    1     2.4520     4.6335   12 C    0 0 0
  27 C    3     2.4520     4.6335   53 C    0 0 0    8 C    0 0 0   67 C    1 1 0
  27 C    1     2.4520     4.6337   31 C    1 0 0

  28 C    1     1.4156     2.6751    7 C    0 0 0
  28 C    1     1.4157     2.6752   62 C    0 1 0
  28 C    1     1.4157     2.6752   34 C    0 0 0
  28 C    1     2.4520     4.6335    1 C    0 0 0
  28 C    3     2.4520     4.6335   42 C    0 1 0   32 C    0 0 0   50 C    0 0 0
  28 C    1     2.4520     4.6337   68 C    0 1 0

  29 C    1     1.4156     2.6751   53 C   -1 0 0
  29 C    2     1.4157     2.6752   27 C   -1 0 0   31 C    0 0 0
  29 C    2     2.4520     4.6335   10 C   -1 0 0   61 C    0 0 0
  29 C    2     2.4520     4.6335   43 C   -1 0 0   51 C    0 0 0
  29 C    2     2.4520     4.6337   25 C    0 1 0   33 C    0 0 0
  29 C    2     2.8313     5.3503    8 C   -1 0 0   63 C    0 0 0

  30 C    2     1.4157     2.6752    5 C    0 0 0   24 C    0 0 0
  30 C    1     1.4157     2.6752   68 C    1 1 0
  30 C    3     2.4520     4.6335    3 C    0 0 0   11 C    0 0 0   70 C    1 1 0
  30 C    2     2.4520     4.6337   34 C    1 0 0   44 C    0 0 0
  30 C    1     2.4520     4.6337   62 C    1 1 0
  30 C    1     2.8313     5.3503   60 C    1 1 0

  31 C    1     1.4156     2.6751   61 C    0 0 0
  31 C    1     1.4157     2.6752   29 C    0 0 0
  31 C    1     1.4157     2.6752   33 C    0 0 0
  31 C    1     2.4520     4.6335   71 C    0 0 0
  31 C    3     2.4520     4.6335   53 C   -1 0 0    4 C    0 0 0   63 C    0 0 0
  31 C    1     2.4520     4.6337   27 C   -1 0 0

  32 C    1     1.4156     2.6751   34 C    0 0 0
  32 C    1     1.4157     2.6752   26 C    0 0 0
  32 C    1     1.4157     2.6752   66 C    0 0 0
  32 C    1     2.4520     4.6335   24 C   -1 0 0
  32 C    2     2.4520     4.6335    1 C    0 0 0   28 C    0 0 0
  32 C    1     2.4520     4.6337   64 C    0 0 0

  33 C    1     1.4156     2.6751    4 C    0 0 0
  33 C    1     1.4157     2.6752   35 C    0 1 0
  33 C    1     1.4157     2.6752   31 C    0 0 0
  33 C    1     2.4520     4.6335    6 C    0 0 0
  33 C    3     2.4520     4.6335   47 C    0 1 0    2 C    0 0 0   61 C    0 0 0
  33 C    1     2.4520     4.6337   25 C    0 1 0

  34 C    1     1.4156     2.6751   32 C    0 0 0
  34 C    1     1.4157     2.6752   24 C   -1 0 0
  34 C    1     1.4157     2.6752   28 C    0 0 0
  34 C    1     2.4520     4.6335   26 C    0 0 0
  34 C    2     2.4520     4.6335    7 C    0 0 0   66 C    0 0 0
  34 C    1     2.4520     4.6337   30 C   -1 0 0

  35 C    1     1.4156     2.6751   47 C    0 0 0
  35 C    2     1.4157     2.6752   25 C    0 0 0   33 C    0-1 0
  35 C    2     2.4520     4.6335    4 C    0-1 0   67 C    0 0 0
  35 C    2     2.4520     4.6335   45 C    0 0 0   49 C    0 0 0
  35 C    2     2.4520     4.6337   27 C   -1-1 0   31 C    0-1 0
  35 C    2     2.8313     5.3503    2 C    0-1 0   69 C    0 0 0

  36 C    2     1.4157     2.6752   37 C    0 0 0   39 C   -1 0 0
  36 C    1     1.4157     2.6752   59 C   -1 0 0
  36 C    4     2.4520     4.6335   38 C    0 1 0   40 C    0 0 0   56 C   -1 0 0
                                    58 C    0 0 0
  36 C    2     2.4520     4.6337   22 C   -1 0 0   74 C    0 0 0
  36 C    2     2.8313     5.3503   19 C   -1 0 0   75 C    0 0 0
  36 C    1     2.8313     5.3503   41 C    0 1 0

  37 C    1     1.4156     2.6752   40 C    0 0 0
  37 C    1     1.4157     2.6752   74 C    0 0 0
  37 C    1     1.4157     2.6752   36 C    0 0 0
  37 C    1     2.4520     4.6335   77 C    0 0 0
  37 C    3     2.4520     4.6335   41 C    0 1 0   21 C    0 0 0   75 C    0 0 0
  37 C    1     2.4520     4.6337   39 C   -1 0 0

  38 C    1     1.4156     2.6751   41 C    0 0 0
  38 C    1     1.4156     2.6752   39 C   -1-1 0
  38 C    1     1.4157     2.6752   73 C    0 0 0
  38 C    1     2.4519     4.6334   40 C    0-1 0
  38 C    2     2.4520     4.6335   36 C    0-1 0   54 C    0 0 0
  38 C    1     2.4520     4.6337   72 C    0 0 0

  39 C    1     1.4156     2.6752   38 C    1 1 0
  39 C    1     1.4157     2.6752   22 C    0 0 0
  39 C    1     1.4157     2.6752   36 C    1 0 0
  39 C    1     2.4520     4.6335   23 C    0 0 0
  39 C    3     2.4520     4.6335   41 C    1 1 0   19 C    0 0 0   73 C    1 1 0
  39 C    1     2.4520     4.6337   37 C    1 0 0

  40 C    1     1.4156     2.6751   41 C    0 1 0
  40 C    1     1.4156     2.6752   37 C    0 0 0
  40 C    1     1.4157     2.6752   21 C    0 0 0
  40 C    1     2.4519     4.6334   38 C    0 1 0
  40 C    2     2.4520     4.6335   36 C    0 0 0   54 C    0 1 0
  40 C    1     2.4520     4.6337   18 C    0 0 0

  41 C    2     1.4156     2.6751   38 C    0 0 0   40 C    0-1 0
  41 C    1     1.4157     2.6752   54 C    0 0 0
  41 C    2     2.4520     4.6335   21 C    0-1 0   73 C    0 0 0
  41 C    2     2.4520     4.6335   37 C    0-1 0   39 C   -1-1 0
  41 C    2     2.4520     4.6337   55 C    0 0 0   57 C    0 0 0
  41 C    1     2.8313     5.3503   36 C    0-1 0

  42 C    1     1.4156     2.6751   62 C    0 0 0
  42 C    2     1.4157     2.6752   48 C    0 0 0   52 C    0 0 0
  42 C    2     2.4520     4.6335   50 C    0-1 0   64 C    0 0 0
  42 C    3     2.4520     4.6335   28 C    0-1 0   68 C    0 0 0   46 C    0 0 0
  42 C    1     2.4520     4.6337    9 C    0 0 0
  42 C    2     2.8313     5.3503    7 C    0-1 0   70 C    0 0 0

  43 C    1     1.4156     2.6751    8 C    0 0 0
  43 C    1     1.4157     2.6752   53 C    0 0 0
  43 C    1     1.4157     2.6752   45 C    0 0 0
  43 C    1     2.4520     4.6335    6 C    0 0 0
  43 C    3     2.4520     4.6335   29 C    1 0 0   10 C    0 0 0   69 C    0 0 0
  43 C    1     2.4520     4.6337   51 C    1 0 0

  44 C    1     1.4156     2.6751   50 C    0 0 0
  44 C    1     1.4156     2.6752   60 C    1 1 0
  44 C    1     1.4157     2.6752    5 C    0 0 0
  44 C    1     2.4519     4.6334   52 C    0 1 0
  44 C    2     2.4520     4.6335    7 C    0 0 0   66 C    1 1 0
  44 C    1     2.4520     4.6337   30 C    0 0 0

  45 C    1     1.4156     2.6751   69 C    0 0 0
  45 C    1     1.4157     2.6752   47 C    0 0 0
  45 C    1     1.4157     2.6752   43 C    0 0 0
  45 C    1     2.4520     4.6335   71 C    0 0 0
  45 C    3     2.4520     4.6335   35 C    0 0 0    8 C    0 0 0   67 C    0 0 0
  45 C    1     2.4520     4.6337   49 C    0 0 0

  46 C    1     1.4156     2.6752   52 C    0 0 0
  46 C    2     1.4157     2.6752    3 C    0 0 0   66 C    1 0 0
  46 C    1     2.4520     4.6335    9 C    0 0 0
  46 C    3     2.4520     4.6335   50 C    0-1 0   24 C    0 0 0   42 C    0 0 0
  46 C    1     2.4520     4.6337   60 C    1 0 0
  46 C    1     2.4520     4.6337   32 C    1 0 0

  47 C    1     1.4156     2.6751   35 C    0 0 0
  47 C    2     1.4157     2.6752   45 C    0 0 0   49 C    0 0 0
  47 C    2     2.4520     4.6335    2 C    0-1 0   69 C    0 0 0
  47 C    2     2.4520     4.6335   25 C    0 0 0   33 C    0-1 0
  47 C    2     2.4520     4.6337   43 C    0 0 0   51 C    1 0 0
  47 C    2     2.8313     5.3503    4 C    0-1 0   67 C    0 0 0

  48 C    1     1.4156     2.6751   64 C    0 0 0
  48 C    1     1.4157     2.6752   42 C    0 0 0
  48 C    1     1.4157     2.6752    9 C    0 0 0
  48 C    1     2.4520     4.6335   26 C    0 0 0
  48 C    4     2.4520     4.6335   62 C    0 0 0    3 C    0 0 0   11 C    0 0 0
                                    70 C    0 0 0
  48 C    1     2.4520     4.6337   52 C    0 0 0

  49 C    1     1.4156     2.6751    2 C    0-1 0
  49 C    1     1.4157     2.6752   47 C    0 0 0
  49 C    1     1.4157     2.6752   51 C    1 0 0
  49 C    1     2.4520     4.6335   12 C    0-1 0
  49 C    3     2.4520     4.6335   35 C    0 0 0    4 C    0-1 0   63 C    1 0 0
  49 C    1     2.4520     4.6337   45 C    0 0 0

  50 C    2     1.4156     2.6751   44 C    0 0 0   52 C    0 1 0
  50 C    1     1.4157     2.6752    7 C    0 0 0
  50 C    2     2.4520     4.6335    5 C    0 0 0   42 C    0 1 0
  50 C    3     2.4520     4.6335   46 C    0 1 0   60 C    1 1 0   28 C    0 0 0
  50 C    1     2.4520     4.6337    1 C    0 0 0
  50 C    1     2.8313     5.3503   62 C    0 1 0

  51 C    1     1.4156     2.6751   63 C    0 0 0
  51 C    1     1.4157     2.6752   53 C   -1 0 0
  51 C    1     1.4157     2.6752   49 C   -1 0 0
  51 C    1     2.4520     4.6335   65 C    0 0 0
  51 C    3     2.4520     4.6335   29 C    0 0 0    2 C   -1-1 0   61 C    0 0 0
  51 C    1     2.4520     4.6337   43 C   -1 0 0

  52 C    1     1.4156     2.6751   50 C    0-1 0
  52 C    1     1.4156     2.6752   46 C    0 0 0
  52 C    1     1.4157     2.6752   42 C    0 0 0
  52 C    1     2.4519     4.6334   44 C    0-1 0
  52 C    3     2.4520     4.6335   62 C    0 0 0    7 C    0-1 0   66 C    1 0 0
  52 C    1     2.4520     4.6337   48 C    0 0 0

  53 C    1     1.4156     2.6751   29 C    1 0 0
  53 C    2     1.4157     2.6752   43 C    0 0 0   51 C    1 0 0
  53 C    2     2.4520     4.6335    8 C    0 0 0   63 C    1 0 0
  53 C    2     2.4520     4.6335   27 C    0 0 0   31 C    1 0 0
  53 C    2     2.4520     4.6337   45 C    0 0 0   49 C    0 0 0
  53 C    2     2.8313     5.3503   10 C    0 0 0   61 C    1 0 0

  54 C    2     1.4157     2.6752   55 C    0 0 0   57 C    0 0 0
  54 C    1     1.4157     2.6752   41 C    0 0 0
  54 C    4     2.4520     4.6335   38 C    0 0 0   40 C    0-1 0   56 C    0 0 0
                                    58 C    1 0 0
  54 C    2     2.4520     4.6337   20 C    0-1 0   76 C    0 0 0
  54 C    2     2.8313     5.3503   21 C    0-1 0   73 C    0 0 0
  54 C    1     2.8313     5.3503   59 C    0 0 0

  55 C    1     1.4156     2.6752   58 C    1 0 0
  55 C    1     1.4157     2.6752   20 C    0-1 0
  55 C    1     1.4157     2.6752   54 C    0 0 0
  55 C    1     2.4520     4.6335   23 C    0-1 0
  55 C    3     2.4520     4.6335   59 C    0 0 0   21 C    0-1 0   75 C    1 0 0
  55 C    1     2.4520     4.6337   57 C    0 0 0

  56 C    1     1.4156     2.6751   59 C    0 0 0
  56 C    1     1.4156     2.6752   57 C    0 0 0
  56 C    1     1.4157     2.6752   19 C    0 0 0
  56 C    1     2.4519     4.6334   58 C    1 0 0
  56 C    2     2.4520     4.6335   36 C    1 0 0   54 C    0 0 0
  56 C    1     2.4520     4.6337   18 C    0 0 0

  57 C    1     1.4156     2.6752   56 C    0 0 0
  57 C    1     1.4157     2.6752   76 C    0 0 0
  57 C    1     1.4157     2.6752   54 C    0 0 0
  57 C    1     2.4520     4.6335   77 C    0 0 0
  57 C    3     2.4520     4.6335   59 C    0 0 0   19 C    0 0 0   73 C    0 0 0
  57 C    1     2.4520     4.6337   55 C    0 0 0

  58 C    1     1.4156     2.6751   59 C   -1 0 0
  58 C    1     1.4156     2.6752   55 C   -1 0 0
  58 C    1     1.4157     2.6752   75 C    0 0 0
  58 C    1     2.4519     4.6334   56 C   -1 0 0
  58 C    2     2.4520     4.6335   36 C    0 0 0   54 C   -1 0 0
  58 C    1     2.4520     4.6337   72 C    0 0 0

  59 C    2     1.4156     2.6751   56 C    0 0 0   58 C    1 0 0
  59 C    1     1.4157     2.6752   36 C    1 0 0
  59 C    2     2.4520     4.6335   19 C    0 0 0   75 C    1 0 0
  59 C    2     2.4520     4.6335   55 C    0 0 0   57 C    0 0 0
  59 C    2     2.4520     4.6337   37 C    1 0 0   39 C    0 0 0
  59 C    1     2.8313     5.3503   54 C    0 0 0

  60 C    1     1.4156     2.6752   44 C   -1-1 0
  60 C    2     1.4157     2.6752   66 C    0 0 0   70 C    0 0 0
  60 C    1     2.4520     4.6335   68 C    0 0 0
  60 C    2     2.4520     4.6335   50 C   -1-1 0    5 C   -1-1 0
  60 C    1     2.4520     4.6337   46 C   -1 0 0
  60 C    2     2.4520     4.6337   32 C    0 0 0   64 C    0 0 0

  61 C    1     1.4156     2.6751   31 C    0 0 0
  61 C    1     1.4157     2.6752   71 C    0 0 0
  61 C    1     1.4157     2.6752   63 C    0 0 0
  61 C    1     2.4520     4.6335   29 C    0 0 0
  61 C    3     2.4520     4.6335    6 C    0 0 0   33 C    0 0 0   51 C    0 0 0
  61 C    1     2.4520     4.6337   69 C    0 0 0

  62 C    1     1.4156     2.6751   42 C    0 0 0
  62 C    2     1.4157     2.6752   28 C    0-1 0   68 C    0 0 0
  62 C    2     2.4520     4.6335    7 C    0-1 0   70 C    0 0 0
  62 C    2     2.4520     4.6335   48 C    0 0 0   52 C    0 0 0
  62 C    2     2.4520     4.6337   30 C   -1-1 0   34 C    0-1 0
  62 C    2     2.8313     5.3503   50 C    0-1 0   64 C    0 0 0

  63 C    1     1.4156     2.6751   51 C    0 0 0
  63 C    1     1.4157     2.6752   65 C    0 0 0
  63 C    1     1.4157     2.6752   61 C    0 0 0
  63 C    1     2.4520     4.6335   53 C   -1 0 0
  63 C    3     2.4520     4.6335   12 C   -1-1 0   31 C    0 0 0   49 C   -1 0 0
  63 C    1     2.4520     4.6337   67 C    0 0 0

  64 C    1     1.4156     2.6751   48 C    0 0 0
  64 C    1     1.4157     2.6752   26 C    0 0 0
  64 C    1     1.4157     2.6752   70 C    0 0 0
  64 C    1     2.4520     4.6335   42 C    0 0 0
  64 C    3     2.4520     4.6335    1 C    0 0 0    9 C    0 0 0   68 C    0 0 0
  64 C    1     2.4520     4.6337   32 C    0 0 0

  65 C    1     1.4156     2.6751   12 C   -1-1 0
  65 C    2     1.4157     2.6752   63 C    0 0 0   67 C    0 0 0
  65 C    2     2.4520     4.6335   25 C    0 0 0   51 C    0 0 0
  65 C    2     2.4520     4.6335    2 C   -1-1 0   10 C   -1-1 0
  65 C    2     2.4520     4.6337   61 C    0 0 0   69 C    0 0 0
  65 C    2     2.8313     5.3503   27 C   -1-1 0   49 C   -1 0 0

  66 C    2     1.4157     2.6752   46 C   -1 0 0   60 C    0 0 0
  66 C    1     1.4157     2.6752   32 C    0 0 0
  66 C    3     2.4520     4.6335   34 C    0 0 0   44 C   -1-1 0   52 C   -1 0 0
  66 C    2     2.4520     4.6337    3 C   -1 0 0   70 C    0 0 0
  66 C    1     2.4520     4.6337   26 C    0 0 0
  66 C    1     2.8313     5.3503   24 C   -1 0 0

  67 C    1     1.4156     2.6751   25 C    0 0 0
  67 C    1     1.4157     2.6752   65 C    0 0 0
  67 C    1     1.4157     2.6752   69 C    0 0 0
  67 C    1     2.4520     4.6335   35 C    0 0 0
  67 C    3     2.4520     4.6335   12 C   -1-1 0   27 C   -1-1 0   45 C    0 0 0
  67 C    1     2.4520     4.6337   63 C    0 0 0

  68 C    1     1.4156     2.6751   70 C    0 0 0
  68 C    1     1.4157     2.6752   62 C    0 0 0
  68 C    1     1.4157     2.6752   30 C   -1-1 0
  68 C    1     2.4520     4.6335   60 C    0 0 0
  68 C    2     2.4520     4.6335   42 C    0 0 0   64 C    0 0 0
  68 C    1     2.4520     4.6337   28 C    0-1 0

  69 C    1     1.4156     2.6751   45 C    0 0 0
  69 C    1     1.4157     2.6752   71 C    0 0 0
  69 C    1     1.4157     2.6752   67 C    0 0 0
  69 C    1     2.4520     4.6335   47 C    0 0 0
  69 C    3     2.4520     4.6335    6 C    0 0 0   25 C    0 0 0   43 C    0 0 0
  69 C    1     2.4520     4.6337   61 C    0 0 0

  70 C    1     1.4156     2.6751   68 C    0 0 0
  70 C    1     1.4157     2.6752   60 C    0 0 0
  70 C    1     1.4157     2.6752   64 C    0 0 0
  70 C    1     2.4520     4.6335   62 C    0 0 0
  70 C    2     2.4520     4.6335   30 C   -1-1 0   48 C    0 0 0
  70 C    1     2.4520     4.6337   66 C    0 0 0

  71 C    1     1.4156     2.6751    6 C    0 0 0
  71 C    2     1.4157     2.6752   61 C    0 0 0   69 C    0 0 0
  71 C    2     2.4520     4.6335   31 C    0 0 0   45 C    0 0 0
  71 C    2     2.4520     4.6335    4 C    0 0 0    8 C    0 0 0
  71 C    2     2.4520     4.6337   63 C    0 0 0   67 C    0 0 0
  71 C    2     2.8313     5.3503   33 C    0 0 0   43 C    0 0 0

  72 C    2     1.4157     2.6752   73 C    0 0 0   75 C    0 0 0
  72 C    1     1.4157     2.6752   23 C   -1-1 0
  72 C    4     2.4520     4.6335   20 C   -1-1 0   22 C   -1-1 0   74 C    0 0 0
                                    76 C    0 0 0
  72 C    2     2.4520     4.6337   38 C    0 0 0   58 C    0 0 0
  72 C    2     2.8313     5.3503   39 C   -1-1 0   55 C   -1 0 0
  72 C    1     2.8313     5.3503   77 C    0 0 0

  73 C    1     1.4156     2.6752   76 C    0 0 0
  73 C    1     1.4157     2.6752   38 C    0 0 0
  73 C    1     1.4157     2.6752   72 C    0 0 0
  73 C    1     2.4520     4.6335   41 C    0 0 0
  73 C    3     2.4520     4.6335   77 C    0 0 0   39 C   -1-1 0   57 C    0 0 0
  73 C    1     2.4520     4.6337   75 C    0 0 0

  74 C    1     1.4156     2.6751   77 C    0 0 0
  74 C    1     1.4156     2.6752   75 C    0 0 0
  74 C    1     1.4157     2.6752   37 C    0 0 0
  74 C    1     2.4519     4.6334   76 C    0 0 0
  74 C    2     2.4520     4.6335   18 C    0 0 0   72 C    0 0 0
  74 C    1     2.4520     4.6337   36 C    0 0 0

  75 C    1     1.4156     2.6752   74 C    0 0 0
  75 C    1     1.4157     2.6752   58 C    0 0 0
  75 C    1     1.4157     2.6752   72 C    0 0 0
  75 C    1     2.4520     4.6335   59 C   -1 0 0
  75 C    3     2.4520     4.6335   77 C    0 0 0   37 C    0 0 0   55 C   -1 0 0
  75 C    1     2.4520     4.6337   73 C    0 0 0

  76 C    1     1.4156     2.6751   77 C    0 0 0
  76 C    1     1.4156     2.6752   73 C    0 0 0
  76 C    1     1.4157     2.6752   57 C    0 0 0
  76 C    1     2.4519     4.6334   74 C    0 0 0
  76 C    2     2.4520     4.6335   18 C    0 0 0   72 C    0 0 0
  76 C    1     2.4520     4.6337   54 C    0 0 0

  77 C    2     1.4156     2.6751   74 C    0 0 0   76 C    0 0 0
  77 C    1     1.4157     2.6752   18 C    0 0 0
  77 C    2     2.4520     4.6335   37 C    0 0 0   57 C    0 0 0
  77 C    2     2.4520     4.6335   73 C    0 0 0   75 C    0 0 0
  77 C    2     2.4520     4.6337   19 C    0 0 0   21 C    0 0 0
  77 C    1     2.8313     5.3503   72 C    0 0 0


 SYMMETRY ALLOWED ELASTIC DISTORTION 1
  0.7071068  0.0000000
  0.0000000  0.7071068

 SYMMETRY ALLOWED ELASTIC DISTORTION 2
  0.7071068  0.0000000
  0.0000000 -0.7071068

 SYMMETRY ALLOWED ELASTIC DISTORTION 3
  0.0000000  0.7071068
  0.7071068  0.0000000

 SYMMETRY ALLOWED INTERNAL DEGREE(S) OF FREEDOM: 228
 TTTTTTTTTTTTTTTTTTTTTTTTTTTTTT SYMM        TELAPSE        2.02 TCPU        1.03
 TTTTTTTTTTTTTTTTTTTTTTTTTTTTTT INT_SCREEN  TELAPSE        2.09 TCPU        1.09

 *******************************************************************************
 *                             OPTIMIZATION STARTS                             *
 *******************************************************************************
 RECLASIFICATION OF INDICES FOR INTEGRAL CALC ACCORDING TO DIFFERENT CRITERIA:
           FIXDELTE                  FIXDELTX              FIXDELTN
           1.0000000               0.80000000                231
 *******************************************************************************

 *******************************************************************************
 COORDINATE AND CELL OPTIMIZATION - POINT    1

 DFT PARAMETERS

     ATOM       ELECTRONS   NET CHARGE   R(ANGSTROM)
   1   6  C       6.0000      0.0000     0.77000000
  13   5  B       5.0000      0.0000     0.89000000
  14   9  F       9.0000      0.0000     0.72000000

 SIZE OF GRID=    2430292
 TTTTTTTTTTTTTTTTTTTTTTTTTTTTTT MAKE_GRID2  TELAPSE        3.43 TCPU        2.42
 BECKE WEIGHT FUNCTION
 RADSAFE =     2.00
 TOLERANCES - DENSITY:10**- 6; POTENTIAL:10**- 9; GRID WGT:10**-14

 RADIAL INTEGRATION  - INTERVALS (POINTS,UPPER LIMIT):            1( 75,  4.0*R)

 ANGULAR INTEGRATION - INTERVALS (ACCURACY LEVEL [N. POINTS] UPPER LIMIT):
  1(  4[  86]   0.2)  2(  8[ 194]   0.5)  3( 12[ 350]   0.9)  4( 16[ 974]   3.5)
  5( 12[ 350]9999.0)
 TTTTTTTTTTTTTTTTTTTTTTTTTTTTTT INT_CALC    TELAPSE        3.45 TCPU        2.45

 *******************************************************************************
 3LG_BF4_2x2_ver3                                                                
 CRYSTAL - SCF - TYPE OF CALCULATION :  UNRESTRICTED OPEN SHELL
 *******************************************************************************

 CAPPA:IS1  6;IS2  6;IS3  1; K PTS MONK NET  20; SYMMOPS:K SPACE   2;G SPACE   1

 TTTTTTTTTTTTTTTTTTTTTTTTTTTTTT SDIK        TELAPSE        7.84 TCPU        6.83

 AAAAAAAAAAAAAAAAAAAAAAAAAAAAAAAAAAAAAAAAAAAAAAAAAAAAAAAAAAAAAAAAAAAAAAAAAAAAAAA
         ATOMIC WAVEFUNCTION(S)


 NUCLEAR CHARGE  6.0  SYMMETRY SPECIES            S    P
 N. ELECTRONS    6.0  NUMBER OF PRIMITIVE GTOS    8    4
                      NUMBER OF CONTRACTED GTOS   4    2
                      NUMBER OF CLOSED SHELLS     2    0
                      OPEN SHELL OCCUPATION       0    2

  ZNUC  SCFIT    TOTAL HF ENERGY   KINETIC ENERGY   VIRIAL THEOREM ACCURACY
   6.0     9    -3.766704647E+01  3.775180687E+01 -1.997754799E+00  1.1E-06

 NUCLEAR CHARGE  5.0  SYMMETRY SPECIES            S    P
 N. ELECTRONS    5.0  NUMBER OF PRIMITIVE GTOS    8    4
                      NUMBER OF CONTRACTED GTOS   4    2
                      NUMBER OF CLOSED SHELLS     2    0
                      OPEN SHELL OCCUPATION       0    1

  ZNUC  SCFIT    TOTAL HF ENERGY   KINETIC ENERGY   VIRIAL THEOREM ACCURACY
   5.0    11    -2.451164084E+01  2.462155031E+01 -1.995536046E+00  1.5E-06

 NUCLEAR CHARGE  9.0  SYMMETRY SPECIES            S    P
 N. ELECTRONS    9.0  NUMBER OF PRIMITIVE GTOS    8    4
                      NUMBER OF CONTRACTED GTOS   4    2
                      NUMBER OF CLOSED SHELLS     2    0
                      OPEN SHELL OCCUPATION       0    5

  ZNUC  SCFIT    TOTAL HF ENERGY   KINETIC ENERGY   VIRIAL THEOREM ACCURACY
   9.0    13    -9.934725818E+01  9.937144158E+01 -1.999756636E+00  4.4E-06

 AAAAAAAAAAAAAAAAAAAAAAAAAAAAAAAAAAAAAAAAAAAAAAAAAAAAAAAAAAAAAAAAAAAAAAAAAAAAAAA

 CHARGE NORMALIZATION FACTOR   1.00000000
 TOTAL ATOMIC CHARGES:
   6.0000000   6.0000000   6.0000000   6.0000000   6.0000000   6.0000000
   6.0000000   6.0000000   6.0000000   6.0000000   6.0000000   6.0000000
   5.0000000   9.0000000   9.0000000   9.0000000   9.0000000   6.0000000
   6.0000000   6.0000000   6.0000000   6.0000000   6.0000000   6.0000000
   6.0000000   6.0000000   6.0000000   6.0000000   6.0000000   6.0000000
   6.0000000   6.0000000   6.0000000   6.0000000   6.0000000   6.0000000
   6.0000000   6.0000000   6.0000000   6.0000000   6.0000000   6.0000000
   6.0000000   6.0000000   6.0000000   6.0000000   6.0000000   6.0000000
   6.0000000   6.0000000   6.0000000   6.0000000   6.0000000   6.0000000
   6.0000000   6.0000000   6.0000000   6.0000000   6.0000000   6.0000000
   6.0000000   6.0000000   6.0000000   6.0000000   6.0000000   6.0000000
   6.0000000   6.0000000   6.0000000   6.0000000   6.0000000   6.0000000
   6.0000000   6.0000000   6.0000000   6.0000000   6.0000000
 SUMMED SPIN DENSITY           0.00000000
 TOTAL ATOMIC SPINS  :
   0.0000000   0.0000000   0.0000000   0.0000000   0.0000000   0.0000000
   0.0000000   0.0000000   0.0000000   0.0000000   0.0000000   0.0000000
   0.0000000   0.0000000   0.0000000   0.0000000   0.0000000   0.0000000
   0.0000000   0.0000000   0.0000000   0.0000000   0.0000000   0.0000000
   0.0000000   0.0000000   0.0000000   0.0000000   0.0000000   0.0000000
   0.0000000   0.0000000   0.0000000   0.0000000   0.0000000   0.0000000
   0.0000000   0.0000000   0.0000000   0.0000000   0.0000000   0.0000000
   0.0000000   0.0000000   0.0000000   0.0000000   0.0000000   0.0000000
   0.0000000   0.0000000   0.0000000   0.0000000   0.0000000   0.0000000
   0.0000000   0.0000000   0.0000000   0.0000000   0.0000000   0.0000000
   0.0000000   0.0000000   0.0000000   0.0000000   0.0000000   0.0000000
   0.0000000   0.0000000   0.0000000   0.0000000   0.0000000   0.0000000
   0.0000000   0.0000000   0.0000000   0.0000000   0.0000000
 TTTTTTTTTTTTTTTTTTTTTTTTTTTTTT MOQGAD      TELAPSE        7.90 TCPU        6.88
 TTTTTTTTTTTTTTTTTTTTTTTTTTTTTT SHELLXN     TELAPSE      167.35 TCPU      165.72
 TTTTTTTTTTTTTTTTTTTTTTTTTTTTTT MONMO3      TELAPSE      167.81 TCPU      166.18
 NUMERICALLY INTEGRATED DENSITY    236.4999925184    236.4999925184
 TTTTTTTTTTTTTTTTTTTTTTTTTTTTTT NUMDFT      TELAPSE      171.98 TCPU      170.33
 CYC   0 ETOT(AU) -3.181047044206E+03 DETOT -3.18E+03 tst  0.00E+00 PX  1.00E+00
 TTTTTTTTTTTTTTTTTTTTTTTTTTTTTT DIIS        TELAPSE      172.08 TCPU      170.44
 TTTTTTTTTTTTTTTTTTTTTTTTTTTTTT FDIK        TELAPSE      215.23 TCPU      213.47
 POSSIBLY CONDUCTING STATE - EFERMI(AU) -2.2391133E-01 (RES. CHARGE  1.34E-10;IT. 14)
 TTTTTTTTTTTTTTTTTTTTTTTTTTTTTT PDIG        TELAPSE      217.02 TCPU      215.26
 CHARGE NORMALIZATION FACTOR   1.00000000
 TOTAL ATOMIC CHARGES:
   5.9766185   5.9949058   5.9942977   5.9900192   5.9775183   5.9768375
   5.9941931   5.9769167   5.9775572   5.9893932   5.9945473   5.9940620
   4.1717011   9.2917474   9.2852814   9.5864821   9.5883669   5.9928837
   5.9797632   5.9970859   5.9745445   5.9990783   5.9807250   5.9767710
   5.9877275   5.9944411   5.9854940   5.9774283   5.9929847   5.9943141
   5.9931009   5.9777122   5.9846283   5.9943674   5.9880409   5.9958491
   5.9792620   5.9961018   5.9769415   5.9980036   5.9757183   5.9767810
   5.9960578   5.9942685   5.9910412   5.9775126   5.9893404   5.9941919
   5.9899509   5.9775893   5.9886748   5.9943123   5.9855274   5.9977288
   5.9751642   5.9929275   5.9788597   5.9957553   5.9775044   5.9767033
   5.9852702   5.9943059   5.9888686   5.9774612   5.9873169   5.9942978
   5.9900124   5.9777568   5.9911905   5.9942860   5.9960913   5.9941884
   5.9781500   5.9969369   5.9769831   5.9935200   5.9800601
 SUMMED SPIN DENSITY          -0.00000000
 TOTAL ATOMIC SPINS  :
   0.0000000  -0.0000000   0.0000000   0.0000000   0.0000000   0.0000000
   0.0000000  -0.0000000  -0.0000000   0.0000000  -0.0000000  -0.0000000
  -0.0000000   0.0000000  -0.0000000   0.0000000   0.0000000  -0.0000000
   0.0000000   0.0000000  -0.0000000  -0.0000000  -0.0000000   0.0000000
   0.0000000   0.0000000  -0.0000000   0.0000000   0.0000000   0.0000000
   0.0000000  -0.0000000  -0.0000000  -0.0000000   0.0000000   0.0000000
  -0.0000000  -0.0000000   0.0000000  -0.0000000   0.0000000  -0.0000000
   0.0000000  -0.0000000  -0.0000000  -0.0000000   0.0000000  -0.0000000
  -0.0000000   0.0000000   0.0000000   0.0000000  -0.0000000   0.0000000
   0.0000000  -0.0000000  -0.0000000   0.0000000  -0.0000000   0.0000000
  -0.0000000   0.0000000   0.0000000  -0.0000000  -0.0000000  -0.0000000
  -0.0000000  -0.0000000  -0.0000000  -0.0000000   0.0000000  -0.0000000
   0.0000000  -0.0000000  -0.0000000   0.0000000   0.0000000
 TTTTTTTTTTTTTTTTTTTTTTTTTTTTTT MOQGAD      TELAPSE      217.05 TCPU      215.28
 TTTTTTTTTTTTTTTTTTTTTTTTTTTTTT SHELLXN     TELAPSE      380.77 TCPU      377.30
 TTTTTTTTTTTTTTTTTTTTTTTTTTTTTT MONMO3      TELAPSE      381.22 TCPU      377.75
 NUMERICALLY INTEGRATED DENSITY    236.4999576917    236.4999576917
 TTTTTTTTTTTTTTTTTTTTTTTTTTTTTT NUMDFT      TELAPSE      385.53 TCPU      382.05
 CYC   1 ETOT(AU) -3.156107110588E+03 DETOT  2.49E+01 tst  0.00E+00 PX  1.00E+00
 TTTTTTTTTTTTTTTTTTTTTTTTTTTTTT DIIS        TELAPSE      386.13 TCPU      382.64
 DIIS TEST: 0.15103E+01 AT SCF   CYCLE   1 - MIX   30 %
 TTTTTTTTTTTTTTTTTTTTTTTTTTTTTT FDIK        TELAPSE      396.28 TCPU      392.77
 POSSIBLY CONDUCTING STATE - EFERMI(AU) -1.2604075E-01 (RES. CHARGE  1.98E-11;IT. 10)
 TTTTTTTTTTTTTTTTTTTTTTTTTTTTTT PDIG        TELAPSE      398.49 TCPU      394.97
 CHARGE NORMALIZATION FACTOR   1.00000000
 TOTAL ATOMIC CHARGES:
   6.2458263   5.8124854   6.2661228   5.8487686   6.2447062   5.8308176
[...]
                 12 C    ( -1 -1  0)     2.670     1.413     0.000
                 67 C    (  0  0  0)     2.674     1.415     0.000
                 63 C    (  0  0  0)     2.675     1.415    -0.000
                 10 C    ( -1 -1  0)     4.625     2.448    -0.000
                  2 C    ( -1 -1  0)     4.625     2.448     0.000
                 51 C    (  0  0  0)     4.630     2.450    -0.000

 ATOM A  66 C    ATOM B     CELL      R(AB)/AU R(AB)/ANG    OVPOP(AB)
                 32 C    (  0  0  0)     2.674     1.415     0.000
                 46 C    ( -1  0  0)     2.674     1.415     0.000
                 60 C    (  0  0  0)     2.674     1.415     0.000
                 52 C    ( -1  0  0)     4.631     2.451    -0.000
                 26 C    (  0  0  0)     4.632     2.451    -0.000
                 34 C    (  0  0  0)     4.632     2.451     0.000

 ATOM A  67 C    ATOM B     CELL      R(AB)/AU R(AB)/ANG    OVPOP(AB)
                 65 C    (  0  0  0)     2.674     1.415     0.000
                 25 C    (  0  0  0)     2.676     1.416    -0.000
                 69 C    (  0  0  0)     2.676     1.416     0.000
                 63 C    (  0  0  0)     4.629     2.450    -0.000
                 12 C    ( -1 -1  0)     4.630     2.450     0.000
                 27 C    ( -1 -1  0)     4.632     2.451    -0.000

 ATOM A  68 C    ATOM B     CELL      R(AB)/AU R(AB)/ANG    OVPOP(AB)
                 30 C    ( -1 -1  0)     2.674     1.415     0.000
                 62 C    (  0  0  0)     2.674     1.415     0.000
                 70 C    (  0  0  0)     2.674     1.415     0.000
                  5 C    ( -1 -1  0)     4.631     2.451    -0.000
                 24 C    ( -1 -1  0)     4.631     2.451     0.000
                 42 C    (  0  0  0)     4.632     2.451    -0.000

 ATOM A  69 C    ATOM B     CELL      R(AB)/AU R(AB)/ANG    OVPOP(AB)
                 45 C    (  0  0  0)     2.675     1.416     0.000
                 67 C    (  0  0  0)     2.676     1.416     0.000
                 71 C    (  0  0  0)     2.676     1.416    -0.000
                 61 C    (  0  0  0)     4.632     2.451    -0.000
                 25 C    (  0  0  0)     4.632     2.451    -0.000
                 43 C    (  0  0  0)     4.632     2.451     0.000

 ATOM A  70 C    ATOM B     CELL      R(AB)/AU R(AB)/ANG    OVPOP(AB)
                 64 C    (  0  0  0)     2.674     1.415     0.000
                 60 C    (  0  0  0)     2.674     1.415    -0.000
                 68 C    (  0  0  0)     2.674     1.415     0.000
                 44 C    ( -1 -1  0)     4.631     2.451    -0.000
                 30 C    ( -1 -1  0)     4.631     2.451     0.000
                 48 C    (  0  0  0)     4.632     2.451    -0.000

 ATOM A  71 C    ATOM B     CELL      R(AB)/AU R(AB)/ANG    OVPOP(AB)
                  6 C    (  0  0  0)     2.674     1.415     0.000
                 69 C    (  0  0  0)     2.676     1.416    -0.000
                 61 C    (  0  0  0)     2.677     1.416    -0.000
                  8 C    (  0  0  0)     4.631     2.450     0.000
                 31 C    (  0  0  0)     4.632     2.451    -0.000
                  4 C    (  0  0  0)     4.632     2.451     0.000

 ATOM A  72 C    ATOM B     CELL      R(AB)/AU R(AB)/ANG    OVPOP(AB)
                 23 C    ( -1 -1  0)     2.670     1.413     0.000
                 75 C    (  0  0  0)     2.674     1.415     0.000
                 73 C    (  0  0  0)     2.674     1.415     0.000
                 20 C    ( -1 -1  0)     4.625     2.447    -0.000
                 22 C    ( -1 -1  0)     4.626     2.448    -0.000
                 38 C    (  0  0  0)     4.631     2.451    -0.000

 ATOM A  73 C    ATOM B     CELL      R(AB)/AU R(AB)/ANG    OVPOP(AB)
                 38 C    (  0  0  0)     2.673     1.415    -0.000
                 76 C    (  0  0  0)     2.674     1.415     0.000
                 72 C    (  0  0  0)     2.674     1.415     0.000
                 39 C    ( -1 -1  0)     4.628     2.449    -0.000
                 41 C    (  0  0  0)     4.629     2.450    -0.000
                 75 C    (  0  0  0)     4.629     2.450     0.000

 ATOM A  74 C    ATOM B     CELL      R(AB)/AU R(AB)/ANG    OVPOP(AB)
                 37 C    (  0  0  0)     2.675     1.416     0.000
                 75 C    (  0  0  0)     2.676     1.416    -0.000
                 77 C    (  0  0  0)     2.676     1.416     0.000
                 76 C    (  0  0  0)     4.631     2.451    -0.000
                 58 C    (  0  0  0)     4.631     2.451    -0.000
                 40 C    (  0  0  0)     4.632     2.451     0.000

 ATOM A  75 C    ATOM B     CELL      R(AB)/AU R(AB)/ANG    OVPOP(AB)
                 72 C    (  0  0  0)     2.674     1.415     0.000
                 58 C    (  0  0  0)     2.675     1.416     0.000
                 74 C    (  0  0  0)     2.676     1.416    -0.000
                 73 C    (  0  0  0)     4.629     2.450     0.000
                 23 C    ( -1 -1  0)     4.630     2.450    -0.000
                 55 C    ( -1  0  0)     4.631     2.451    -0.000

 ATOM A  76 C    ATOM B     CELL      R(AB)/AU R(AB)/ANG    OVPOP(AB)
                 73 C    (  0  0  0)     2.674     1.415     0.000
                 57 C    (  0  0  0)     2.676     1.416     0.000
                 77 C    (  0  0  0)     2.677     1.417     0.000
                 38 C    (  0  0  0)     4.631     2.450     0.000
                 74 C    (  0  0  0)     4.631     2.451    -0.000
                 72 C    (  0  0  0)     4.632     2.451     0.000

 ATOM A  77 C    ATOM B     CELL      R(AB)/AU R(AB)/ANG    OVPOP(AB)
                 18 C    (  0  0  0)     2.673     1.415     0.000
                 74 C    (  0  0  0)     2.676     1.416     0.000
                 76 C    (  0  0  0)     2.677     1.417     0.000
                 21 C    (  0  0  0)     4.631     2.450    -0.000
                 57 C    (  0  0  0)     4.631     2.451    -0.000
                 19 C    (  0  0  0)     4.632     2.451     0.000
 EIGENVECTORS IN FORTRAN UNIT  8

 FINAL OPTIMIZED GEOMETRY - DIMENSIONALITY OF THE SYSTEM      2
 (NON PERIODIC DIRECTION: LATTICE PARAMETER FORMALLY SET TO 500)
 *******************************************************************************
 LATTICE PARAMETERS (ANGSTROMS AND DEGREES) - BOHR = 0.5291772083 ANGSTROM
 PRIMITIVE CELL
         A              B              C           ALPHA      BETA       GAMMA 
     8.49044166     8.49057792   500.00000000    90.000000  90.000000 120.004389
 *******************************************************************************
 ATOMS IN THE ASYMMETRIC UNIT   77 - ATOMS IN THE UNIT CELL:   77
     ATOM                 X/A                 Y/B             Z(ANGSTROM)
 *******************************************************************************
      1 T   6 C     4.370181537597E-02  3.027300037081E-01  8.593875914729E+00
      2 T   6 C     2.951153399832E-01  3.866793837590E-01  1.869657574327E+01
      3 T   6 C     3.770251887047E-01  1.360670457796E-01  8.592974437094E+00
      4 T   6 C     1.287072864653E-01  2.202367555785E-01  1.868678008632E+01
      5 T   6 C     3.770278282557E-01  4.693970636731E-01  8.595783178978E+00
      6 T   6 C     1.285429634541E-01  5.347105853062E-02  1.867829856619E+01
      7 T   6 C     4.369650621135E-02  4.693940595488E-01  8.591856566623E+00
      8 T   6 C     2.951498591635E-01  5.346986876185E-02  1.868462213053E+01
      9 T   6 C     2.103609708012E-01  1.360671294545E-01  8.594558390557E+00
     10 T   6 C     4.617060172130E-01  2.201800087207E-01  1.869010969669E+01
     11 T   6 C     2.103601835682E-01  3.027275731014E-01  8.594079598113E+00
     12 T   6 C     4.615995274391E-01  3.866083534529E-01  1.869658648136E+01
     13 T   5 B     3.774438907181E-01  3.865574009845E-01  1.531198867314E+01
     14 T   9 F     2.259965645339E-01  3.435082716542E-01  1.451126134412E+01
     15 T   9 F     3.385575455753E-01  2.361364925103E-01  1.610863306649E+01
     16 T   9 F     4.163014784928E-01 -4.631275998050E-01  1.610995108262E+01
     17 T   9 F    -4.710472042998E-01  4.297325250487E-01  1.451156097121E+01
     18 T   6 C     4.417951452802E-02  1.364089948909E-01  1.196523004699E+01
     19 T   6 C     2.109590909516E-01  1.366218280827E-01  1.195166600038E+01
     20 T   6 C     2.109309244068E-01  4.696233077173E-01  1.195397516030E+01
     21 T   6 C     4.423177586266E-02  3.030404476813E-01  1.195437649599E+01
     22 T   6 C     3.774146122747E-01  3.029812774002E-01  1.194778068572E+01
     23 T   6 C     3.773424280497E-01  4.694712074322E-01  1.194029226284E+01
     24 T   6 C    -4.563043942737E-01  3.027349266001E-01  8.594706212494E+00
     25 T   6 C    -2.050014386355E-01  3.866378362435E-01  1.868637500879E+01
     26 T   6 C    -1.229725874485E-01  1.360620163213E-01  8.591949058019E+00
     27 T   6 C    -3.718795418835E-01  2.199698945904E-01  1.869060338635E+01
     28 T   6 C    -1.229671204440E-01  4.693969601998E-01  8.592618114855E+00
     29 T   6 C    -3.716951786861E-01  5.329485540955E-02  1.868325110687E+01
     30 T   6 C    -4.563082671888E-01  4.693946653846E-01  8.594274847135E+00
     31 T   6 C    -2.049652497619E-01  5.331444039650E-02  1.868002602879E+01
     32 T   6 C    -2.896361343012E-01  1.360676827866E-01  8.592380911334E+00
     33 T   6 C    -3.809049884197E-02  2.199927478710E-01  1.868541971515E+01
     34 T   6 C    -2.896392541791E-01  3.027308873854E-01  8.592158245276E+00
     35 T   6 C    -3.826820889481E-02  3.866587013344E-01  1.868675083753E+01
     36 T   6 C    -4.559380741903E-01  1.365192191521E-01  1.195277333667E+01
     37 T   6 C    -2.892672607547E-01  1.363094834113E-01  1.195711635799E+01
     38 T   6 C    -2.894125733389E-01  4.694662512409E-01  1.195901653785E+01
     39 T   6 C    -4.561491020334E-01  3.029487476660E-01  1.194704822250E+01
     40 T   6 C    -1.223861984355E-01  3.029669338773E-01  1.195726996522E+01
     41 T   6 C    -1.228282323232E-01  4.695542344150E-01  1.195362450304E+01
     42 T   6 C     4.369138071031E-02 -1.972686247086E-01  8.592521000732E+00
     43 T   6 C     2.950677999440E-01 -1.131371560772E-01  1.868625777759E+01
     44 T   6 C     3.770237048800E-01 -3.639393124134E-01  8.592722072854E+00
     45 T   6 C     1.284184693576E-01 -2.800067536590E-01  1.868384276275E+01
     46 T   6 C     3.770270246014E-01 -3.059285286824E-02  8.592600245871E+00
     47 T   6 C     1.286138469508E-01 -4.466766403929E-01  1.869115437385E+01
     48 T   6 C     4.369119050473E-02 -3.060286122011E-02  8.592264117242E+00
     49 T   6 C     2.950209514587E-01 -4.468879017384E-01  1.869119093404E+01
     50 T   6 C     2.103619714667E-01 -3.639331751278E-01  8.592610718655E+00
     51 T   6 C     4.615703683239E-01 -2.801734233002E-01  1.868459581747E+01
     52 T   6 C     2.103584323976E-01 -1.972670324975E-01  8.591156517903E+00
     53 T   6 C     4.616539708202E-01 -1.135657181686E-01  1.868641522662E+01
     54 T   6 C     4.403845674816E-02 -3.638008603712E-01  1.196032124873E+01
     55 T   6 C     2.107152705100E-01 -3.639762053274E-01  1.194970990042E+01
     56 T   6 C     2.107146211937E-01 -3.018805767383E-02  1.195832590917E+01
     57 T   6 C     4.403527436175E-02 -1.970758152642E-01  1.196063227320E+01
     58 T   6 C     3.773754863341E-01 -1.971042574607E-01  1.195761242127E+01
     59 T   6 C     3.773825105423E-01 -3.037106774531E-02  1.195435152213E+01
     60 T   6 C    -4.563122479120E-01 -1.972705708214E-01  8.592924059139E+00
     61 T   6 C    -2.051487960439E-01 -1.135519614071E-01  1.867890819422E+01
     62 T   6 C    -1.229749612029E-01 -3.639399008981E-01  8.591943529219E+00
     63 T   6 C    -3.718167843734E-01 -2.801751681369E-01  1.867828373319E+01
     64 T   6 C    -1.229783778785E-01 -3.060674571768E-02  8.592924394616E+00
     65 T   6 C    -3.719864159228E-01 -4.469469402853E-01  1.868621612835E+01
     66 T   6 C    -4.563081095896E-01 -3.060145421534E-02  8.591265361540E+00
     67 T   6 C    -2.051834551685E-01 -4.466960792059E-01  1.868513322807E+01
     68 T   6 C    -2.896453467144E-01 -3.639430830561E-01  8.594106707734E+00
     69 T   6 C    -3.831148247045E-02 -2.800256402419E-01  1.868014089680E+01
     70 T   6 C    -2.896473849032E-01 -1.972759524519E-01  8.592213669902E+00
     71 T   6 C    -3.811784436263E-02 -1.131503243813E-01  1.867880784037E+01
     72 T   6 C    -4.562286759906E-01 -3.640800823835E-01  1.195760499789E+01
     73 T   6 C    -2.894775616226E-01 -3.639551861369E-01  1.196025252580E+01
     74 T   6 C    -2.892932246498E-01 -3.042705214530E-02  1.196319829785E+01
     75 T   6 C    -4.559677885140E-01 -1.972881791885E-01  1.195487536510E+01
     76 T   6 C    -1.228424788277E-01 -1.972727177891E-01  1.196424473858E+01
     77 T   6 C    -1.224245870732E-01 -3.022818747579E-02  1.196089251500E+01

 T = ATOM BELONGING TO THE ASYMMETRIC UNIT
 INFORMATION **** fort.34 **** GEOMETRY OUTPUT FILE

 DIRECT LATTICE VECTORS CARTESIAN COMPONENTS (ANGSTROM)
          X                    Y                    Z
   0.735275979620E+01  -0.424552976766E+01   0.000000000000E+00
  -0.293708627297E-03   0.849057791743E+01   0.000000000000E+00
   0.000000000000E+00   0.000000000000E+00   0.500000000000E+03


 CARTESIAN COORDINATES - PRIMITIVE CELL
 *******************************************************************************
 *      ATOM          X(ANGSTROM)         Y(ANGSTROM)         Z(ANGSTROM)
 *******************************************************************************
    1     6 C     3.212400367035E-01  2.384815326349E+00  8.593875914729E+00
    2     6 C     2.169798635999E+00  2.030210476079E+00  1.869657574327E+01
    3     6 C     2.772135685596E+00 -4.453838076157E-01  8.592974437094E+00
    4     6 C     9.462890759647E-01  1.323506717519E+00  1.868678008632E+01
    5     6 C     2.772057191679E+00  2.384769475236E+00  8.595783178978E+00
    6     6 C     9.451298288579E-01 -9.173278898510E-02  1.867829856619E+01
    7     6 C     3.211520490203E-01  3.799912018716E+00  8.591856566623E+00
    8     6 C     2.170150313749E+00 -7.990774260408E-01  1.868462213053E+01
    9     6 C     1.546693724706E+00  2.621948011453E-01  8.594558390557E+00
   10     6 C     3.394748772259E+00 -9.073112008030E-02  1.869010969669E+01
   11     6 C     1.546638986761E+00  1.677241625904E+00  8.594079598113E+00
   12     6 C     3.393916897090E+00  1.322793814043E+00  1.869658648136E+01
   13     5 B     2.775140729749E+00  1.679646458955E+00  1.531198867314E+01
   14     9 F     1.661597562441E+00  1.957108603645E+00  1.451126134412E+01
   15     9 F     2.489262954480E+00  5.675791510035E-01  1.610863306649E+01
   16     9 F     3.060807090104E+00  2.790936626313E+00  1.610995108262E+01
   17     9 F     3.889136634161E+00  1.402992647750E+00  1.451156097121E+01
   18     6 C     3.248012937385E-01  9.706257557105E-01  1.196523004699E+01
   19     6 C     1.551091395582E+00  2.643651761651E-01  1.195166600038E+01
   20     6 C     1.550786488337E+00  3.091859767527E+00  1.195397516030E+01
   21     6 C     3.251366176835E-01  2.385201212070E+00  1.195437649599E+01
   22     6 C     2.774949999416E+00  9.701611721286E-01  1.194778068572E+01
   23     6 C     2.774370346620E+00  2.384063355809E+00  1.194029226284E+01
   24     6 C     3.997574275294E+00  2.621186039712E-01  8.594706212494E+00
   25     6 C    -1.507146186402E+00 -4.337459532839E+00  1.868637500879E+01
   26     6 C    -9.042278596141E-01  1.677328931797E+00  8.591949058019E+00
   27     6 C     4.618354244553E+00 -7.990325730983E-01  1.869060338635E+01
   28     6 C    -9.042855653917E-01  4.507512035070E+00  8.592618114855E+00
   29     6 C    -2.733001019443E+00  2.030547068059E+00  1.868325110687E+01
   30     6 C     3.997496849277E+00  1.677172544396E+00  8.594274847135E+00
   31     6 C    -1.507075906978E+00  1.322856479510E+00  1.868002602879E+01
   32     6 C    -2.129664888068E+00  2.384952092708E+00  8.592380911334E+00
   33     6 C    -2.801349022704E-01  2.029579913767E+00  1.868541971515E+01
   34     6 C    -2.129736778203E+00  3.800032262858E+00  8.592158245276E+00
   35     6 C    -2.811968042034E-01 -5.045153266280E+00  1.868675083753E+01
   36     6 C    -3.352443238335E+00  3.094825733620E+00  1.195277333667E+01
   37     6 C    -2.126952720505E+00  2.385439056131E+00  1.195711635799E+01
   38     6 C    -2.127825311421E+00 -3.275828436421E+00  1.195901653785E+01
   39     6 C     3.998716039034E+00  2.632747705633E-01  1.194704822250E+01
   40     6 C    -8.999653034681E-01  3.091958607098E+00  1.195726996522E+01
   41     6 C    -9.029706919662E-01 -3.982320187034E+00  1.195362450304E+01
   42     6 C     3.213101670242E-01 -1.860417686149E+00  8.592521000732E+00
   43     6 C     2.169595885940E+00 -2.213318967169E+00  1.868625777759E+01
   44     6 C     2.771977922944E+00  3.799857465988E+00  8.592722072854E+00
   45     6 C     9.443123989813E-01 -2.922623593723E+00  1.868384276275E+01
   46     6 C     2.772198133954E+00 -1.860430457150E+00  8.592600245871E+00
   47     6 C     9.457979158771E-01 -4.338576734914E+00  1.869115437385E+01
   48     6 C     3.212598173156E-01 -4.453282275578E-01  8.592264117242E+00
   49     6 C     2.169349445754E+00 -5.046856781567E+00  1.869119093404E+01
   50     6 C     1.546554228135E+00  4.507476925425E+00  8.592610718655E+00
   51     6 C    -3.958861459518E+00 -9.291525185493E-02  1.868459581747E+01
   52     6 C     1.546772963554E+00 -2.567994096581E+00  8.591156517903E+00
   53     6 C     3.394464111633E+00 -2.924204254333E+00  1.868641522662E+01
   54     6 C     3.239110457158E-01 -3.275846130456E+00  1.196032124873E+01
   55     6 C     1.549445672402E+00 -3.984966284872E+00  1.194970990042E+01
   56     6 C     1.549342861677E+00 -1.150909252614E+00  1.195832590917E+01
   57     6 C     3.238386778088E-01 -1.860240633272E+00  1.196063227320E+01
   58     6 C    -4.577950600989E+00  9.698418510129E-01  1.195761242127E+01
   59     6 C     2.774811871548E+00 -1.860056599427E+00  1.195435152213E+01
   60     6 C    -3.355096410892E+00  2.623460794814E-01  8.592924059139E+00
   61     6 C    -1.508376468600E+00 -9.315645560071E-02  1.867890819422E+01
   62     6 C    -9.040984583831E-01 -2.567966227374E+00  8.591943529219E+00
   63     6 C    -2.733797213828E+00 -8.002898694243E-01  1.867828373319E+01
   64     6 C    -9.042214832016E-01  2.622394047463E-01  8.592924394616E+00
   65     6 C    -2.734995491557E+00 -2.215558419486E+00  1.868621612835E+01
   66     6 C    -3.355114934959E+00  1.677445631083E+00  8.591265361540E+00
   67     6 C    -1.508533461516E+00 -2.921595399160E+00  1.868513322807E+01
   68     6 C    -2.129585767254E+00 -1.860389162659E+00  8.594106707734E+00
   69     6 C    -2.816128820951E-01 -2.214926978081E+00  1.868014089680E+01
   70     6 C    -2.129649705141E+00 -4.452802507987E-01  8.592213669902E+00
   71     6 C    -2.802381203208E-01 -7.988812026213E-01  1.867880784037E+01
   72     6 C    -3.354432933235E+00 -1.154317882885E+00  1.195760499789E+01
   73     6 C    -2.128352080222E+00 -1.861204261411E+00  1.196025252580E+01
   74     6 C    -2.127094654830E+00  9.698597397945E-01  1.196319829785E+01
   75     6 C    -3.352563678507E+00  2.607341616405E-01  1.195487536510E+01
   76     6 C    -9.031732988905E-01 -1.153427980776E+00  1.196424473858E+01
   77     6 C    -9.001497036187E-01  2.631024476464E-01  1.196089251500E+01

 ****    1 SYMMOPS - TRANSLATORS IN FRACTIONAL UNITS
 **** MATRICES AND TRANSLATORS IN THE CRYSTALLOGRAPHIC REFERENCE FRAME
   V INV                    ROTATION MATRICES                   TRANSLATORS
   1   1  1.00 -0.00  0.00  0.00  1.00  0.00  0.00 -0.00  1.00  0.00  0.00  0.00
 TTTTTTTTTTTTTTTTTTTTTTTTTTTTTT END         TELAPSE   173764.62 TCPU   173225.52
 EEEEEEEEEE TERMINATION  DATE 20 03 2024 TIME 16:46:37.1
