          60 PROCESSORS WORKING

         
 *******************************************************************************
 *                                                                             *
 *                               CRYSTAL23                                     *
 *                      public : 1.0.1 - October 2022                          *
 *                       HTTP://WWW.CRYSTAL.UNITO.IT                           *
 *                                                                             *
 *                              MAIN AUTHORS                                   *
 *                                                                             *
 *  R. DOVESI(1,11), V.R. SAUNDERS(2), C. ROETTI(1,11), R. ORLANDO(1,11),      *
 *  C.M. ZICOVICH-WILSON(1,3), F. PASCALE(4), B. CIVALLERI(1,11),              *
 *  K. DOLL(5), N.M. HARRISON(6), I.J. BUSH(7), Ph. D'ARCO(8),                 *
 *  M. LLUNELL(9), M. CAUSA'(10), Y. NOEL(8), L. MASCHIO(1,11), A. ERBA(1,11)  *
 *  M. RE'RAT(14), S. CASASSA(1,11), B.G. SEARLE(2), J.K. DESMARAIS(1)         *
 *                                                                             *
 *        CONTRIBUTIONS TO THE CODE HAVE ALSO BEEN GIVEN BY                    *
 *                                                                             *
 *  M. FERRABONE(1,11), M. DE LA PIERRE(1,11), M. FERRERO(1,11),               *
 *  J. BAIMA(1,11), E. ALBANESE(1,11), M.F. PEINTINGER(12), R. BAST(13),       *
 *  B. KIRTMAN(15), V. LACIVITA(1,11), R. DEMICHELIS(1,16)                     *
 *  G. BRANDEBURG(17), S. SALUSTRO(1,11), G. SANSONE(1,11)                     *
 *  M.T. RUGGIERO(18), L.E. DAGA(1), L. DONA'(1), A. COSSARD(1)                *
 *                                                                             *
 * (1) THEORETICAL CHEMISTRY GROUP - UNIVERSITA' DI TORINO - TORINO (ITALY)    *
 * (2) SCIENTIFIC COMPUTING DEPARTMENT - STFC DARESBURY (UK)                   *
 * (3) UNIVERSIDAD AUTONOMA DEL ESTADO DE MORELOS - CUERNAVACA (MEXICO)        *
 * (4) UNIVERSITE' DE LORRAINE - NANCY (FRANCE)                                *
 * (5) UNIVERSITAET STUTTGART- STUTTGART (GERMANY)                             *
 * (6) IMPERIAL COLLEGE - LONDON (UK)                                          *
 * (7) SCIENTIFIC COMPUTING DEPARTMENT - STFC RAL (UK)                         *
 * (8) UPMC - SORBONNE UNIVERSITES - PARIS (FRANCE)                            *
 * (9) UNIVERSIDAD DE BARCELONA - BARCELONA (SPAIN)                            *
 *(10) UNIVERSITA' DI NAPOLI "FEDERICO II" - NAPOLI (ITALY)                    *
 *(11) NIS - NANOSTRUCTURED INTERFACES AND SURFACES - TORINO (ITALY)           *
 *(12) MPI FUER CHEMISCHE ENERGIEKONVERSION - MUELHEIM AN DER RUHR (GERMANY)   *
 *(13) UNIVERSITY OF TROMSO - TROMSO (NORWAY)                                  *
 *(14) UNIVERSITE' DE PAU ET DES PAYS DE L'ADOUR - PAU (FRANCE)                *
 *(15) UNIVERSITY OF CALIFORNIA SANTA BARBARA - SANTA BARBARA (USA)            *
 *(16) CURTIN UNIVERSITY - PERTH (AUSTRALIA)                                   *
 *(17) UNIVERSITY COLLEGE LONDON - LONDON (UK)                                 *
 *(18) UNIVERSITY OF VERMONT - BURLINGTON (USA)                                *
 *                                                                             *
 *******************************************************************************
 EEEEEEEEEE STARTING  DATE 20 03 2024 TIME 20:12:16.5
 3LG_BF4_2x2_Sol                                                                 

 SLAB CALCULATION
 SYSTEM AND LATTICE                   :  OBLIQUE     
 TWO-SIDED PLANE GROUP N.  1          :  P 1             
 CORRESPONDING SPACE GROUP N.   1

 LATTICE PARAMETERS  (ANGSTROMS AND DEGREES) - CONVENTIONAL CELL
           A              B            GAMMA
        8.49044        8.49058      120.00439


 NUMBER OF IRREDUCIBLE ATOMS IN THE CONVENTIONAL CELL:   77

 INPUT COORDINATES

 ATOM AT. N.              COORDINATES
   1   6     4.370181537600E-02  3.027300037080E-01  8.593875914720E+00
   2   6     2.951153399830E-01  3.866793837590E-01  1.869657574328E+01
   3   6     3.770251887050E-01  1.360670457800E-01  8.592974437080E+00
   4   6     1.287072864650E-01  2.202367555790E-01  1.868678008632E+01
   5   6     3.770278282560E-01  4.693970636730E-01  8.595783178960E+00
   6   6     1.285429634540E-01  5.347105853100E-02  1.867829856620E+01
   7   6     4.369650621100E-02  4.693940595490E-01  8.591856566640E+00
   8   6     2.951498591640E-01  5.346986876200E-02  1.868462213052E+01
   9   6     2.103609708010E-01  1.360671294550E-01  8.594558390560E+00
  10   6     4.617060172130E-01  2.201800087210E-01  1.869010969668E+01
  11   6     2.103601835680E-01  3.027275731010E-01  8.594079598120E+00
  12   6     4.615995274390E-01  3.866083534530E-01  1.869658648136E+01
  13   5     3.774438907180E-01  3.865574009840E-01  1.531198867316E+01
  14   9     2.259965645340E-01  3.435082716540E-01  1.451126134412E+01
  15   9     3.385575455750E-01  2.361364925100E-01  1.610863306648E+01
  16   9     4.163014784930E-01  5.368724001950E-01  1.610995108260E+01
  17   9     5.289527957000E-01  4.297325250490E-01  1.451156097120E+01
  18   6     4.417951452800E-02  1.364089948910E-01  1.196523004700E+01
  19   6     2.109590909520E-01  1.366218280830E-01  1.195166600036E+01
  20   6     2.109309244070E-01  4.696233077170E-01  1.195397516032E+01
  21   6     4.423177586300E-02  3.030404476810E-01  1.195437649600E+01
  22   6     3.774146122750E-01  3.029812774000E-01  1.194778068572E+01
  23   6     3.773424280500E-01  4.694712074320E-01  1.194029226284E+01
  24   6     5.436956057260E-01  3.027349266000E-01  8.594706212480E+00
  25   6     7.949985613650E-01  3.866378362440E-01  1.868637500880E+01
  26   6     8.770274125520E-01  1.360620163210E-01  8.591949058000E+00
  27   6     6.281204581170E-01  2.199698945900E-01  1.869060338636E+01
  28   6     8.770328795560E-01  4.693969602000E-01  8.592618114840E+00
  29   6     6.283048213140E-01  5.329485541000E-02  1.868325110688E+01
  30   6     5.436917328110E-01  4.693946653850E-01  8.594274847120E+00
  31   6     7.950347502380E-01  5.331444039600E-02  1.868002602880E+01
  32   6     7.103638656990E-01  1.360676827870E-01  8.592380911320E+00
  33   6     9.619095011580E-01  2.199927478710E-01  1.868541971516E+01
  34   6     7.103607458210E-01  3.027308873850E-01  8.592158245280E+00
  35   6     9.617317911050E-01  3.866587013340E-01  1.868675083752E+01
  36   6     5.440619258100E-01  1.365192191520E-01  1.195277333668E+01
  37   6     7.107327392450E-01  1.363094834110E-01  1.195711635800E+01
  38   6     7.105874266610E-01  4.694662512410E-01  1.195901653784E+01
  39   6     5.438508979670E-01  3.029487476660E-01  1.194704822248E+01
  40   6     8.776138015650E-01  3.029669338770E-01  1.195726996524E+01
  41   6     8.771717676770E-01  4.695542344150E-01  1.195362450304E+01
  42   6     4.369138071000E-02  8.027313752910E-01  8.592521000720E+00
  43   6     2.950677999440E-01  8.868628439230E-01  1.868625777760E+01
  44   6     3.770237048800E-01  6.360606875870E-01  8.592722072840E+00
  45   6     1.284184693580E-01  7.199932463410E-01  1.868384276276E+01
  46   6     3.770270246010E-01  9.694071471320E-01  8.592600245880E+00
  47   6     1.286138469510E-01  5.533233596070E-01  1.869115437384E+01
  48   6     4.369119050500E-02  9.693971387800E-01  8.592264117240E+00
  49   6     2.950209514590E-01  5.531120982620E-01  1.869119093404E+01
  50   6     2.103619714670E-01  6.360668248720E-01  8.592610718640E+00
  51   6     4.615703683240E-01  7.198265767000E-01  1.868459581748E+01
  52   6     2.103584323980E-01  8.027329675030E-01  8.591156517920E+00
  53   6     4.616539708200E-01  8.864342818310E-01  1.868641522660E+01
  54   6     4.403845674800E-02  6.361991396290E-01  1.196032124872E+01
  55   6     2.107152705100E-01  6.360237946730E-01  1.194970990044E+01
  56   6     2.107146211940E-01  9.698119423260E-01  1.195832590916E+01
  57   6     4.403527436200E-02  8.029241847360E-01  1.196063227320E+01
  58   6     3.773754863340E-01  8.028957425390E-01  1.195761242128E+01
  59   6     3.773825105420E-01  9.696289322550E-01  1.195435152212E+01
  60   6     5.436877520880E-01  8.027294291790E-01  8.592924059120E+00
  61   6     7.948512039560E-01  8.864480385930E-01  1.867890819424E+01
  62   6     8.770250387970E-01  6.360600991020E-01  8.591943529200E+00
  63   6     6.281832156270E-01  7.198248318630E-01  1.867828373320E+01
  64   6     8.770216221220E-01  9.693932542820E-01  8.592924394600E+00
  65   6     6.280135840770E-01  5.530530597150E-01  1.868621612836E+01
  66   6     5.436918904100E-01  9.693985457850E-01  8.591265361520E+00
  67   6     7.948165448310E-01  5.533039207940E-01  1.868513322808E+01
  68   6     7.103546532860E-01  6.360569169440E-01  8.594106707720E+00
  69   6     9.616885175300E-01  7.199743597580E-01  1.868014089680E+01
  70   6     7.103526150970E-01  8.027240475480E-01  8.592213669920E+00
  71   6     9.618821556370E-01  8.868496756190E-01  1.867880784036E+01
  72   6     5.437713240090E-01  6.359199176170E-01  1.195760499788E+01
  73   6     7.105224383770E-01  6.360448138630E-01  1.196025252580E+01
  74   6     7.107067753500E-01  9.695729478550E-01  1.196319829784E+01
  75   6     5.440322114860E-01  8.027118208110E-01  1.195487536508E+01
  76   6     8.771575211720E-01  8.027272822110E-01  1.196424473856E+01
  77   6     8.775754129270E-01  9.697718125240E-01  1.196089251500E+01

 *******************************************************************************

 << INFORMATION >>: FROM NOW ON, ALL COORDINATES REFER TO THE PRIMITIVE CELL

 *******************************************************************************

 LATTICE PARAMETERS  (ANGSTROMS AND DEGREES) - PRIMITIVE CELL
       A          B          C        ALPHA      BETA     GAMMA        VOLUME
    8.49044    8.49058  500.00000    90.00000  90.00000 120.00439     62.427933

 COORDINATES OF THE EQUIVALENT ATOMS 
 (X AND Y IN FRACTIONARY UNITS, Z IN ANGSTROMS)

 N. ATOM EQUIV AT. N.          X                  Y                  Z

   1   1   1    6 C     4.37018153760E-02  3.02730003708E-01  8.59387591472E+00

   2   2   1    6 C     2.95115339983E-01  3.86679383759E-01  1.86965757433E+01

   3   3   1    6 C     3.77025188705E-01  1.36067045780E-01  8.59297443708E+00

   4   4   1    6 C     1.28707286465E-01  2.20236755579E-01  1.86867800863E+01

   5   5   1    6 C     3.77027828256E-01  4.69397063673E-01  8.59578317896E+00

   6   6   1    6 C     1.28542963454E-01  5.34710585310E-02  1.86782985662E+01

   7   7   1    6 C     4.36965062110E-02  4.69394059549E-01  8.59185656664E+00

   8   8   1    6 C     2.95149859164E-01  5.34698687620E-02  1.86846221305E+01

   9   9   1    6 C     2.10360970801E-01  1.36067129455E-01  8.59455839056E+00

  10  10   1    6 C     4.61706017213E-01  2.20180008721E-01  1.86901096967E+01

  11  11   1    6 C     2.10360183568E-01  3.02727573101E-01  8.59407959812E+00

  12  12   1    6 C     4.61599527439E-01  3.86608353453E-01  1.86965864814E+01

  13  13   1    5 B     3.77443890718E-01  3.86557400984E-01  1.53119886732E+01

  14  14   1    9 F     2.25996564534E-01  3.43508271654E-01  1.45112613441E+01

  15  15   1    9 F     3.38557545575E-01  2.36136492510E-01  1.61086330665E+01

  16  16   1    9 F     4.16301478493E-01 -4.63127599805E-01  1.61099510826E+01

  17  17   1    9 F    -4.71047204300E-01  4.29732525049E-01  1.45115609712E+01

  18  18   1    6 C     4.41795145280E-02  1.36408994891E-01  1.19652300470E+01

  19  19   1    6 C     2.10959090952E-01  1.36621828083E-01  1.19516660004E+01

  20  20   1    6 C     2.10930924407E-01  4.69623307717E-01  1.19539751603E+01

  21  21   1    6 C     4.42317758630E-02  3.03040447681E-01  1.19543764960E+01

  22  22   1    6 C     3.77414612275E-01  3.02981277400E-01  1.19477806857E+01

  23  23   1    6 C     3.77342428050E-01  4.69471207432E-01  1.19402922628E+01

  24  24   1    6 C    -4.56304394274E-01  3.02734926600E-01  8.59470621248E+00

  25  25   1    6 C    -2.05001438635E-01  3.86637836244E-01  1.86863750088E+01

  26  26   1    6 C    -1.22972587448E-01  1.36062016321E-01  8.59194905800E+00

  27  27   1    6 C    -3.71879541883E-01  2.19969894590E-01  1.86906033864E+01

  28  28   1    6 C    -1.22967120444E-01  4.69396960200E-01  8.59261811484E+00

  29  29   1    6 C    -3.71695178686E-01  5.32948554100E-02  1.86832511069E+01

  30  30   1    6 C    -4.56308267189E-01  4.69394665385E-01  8.59427484712E+00

  31  31   1    6 C    -2.04965249762E-01  5.33144403960E-02  1.86800260288E+01

  32  32   1    6 C    -2.89636134301E-01  1.36067682787E-01  8.59238091132E+00

  33  33   1    6 C    -3.80904988420E-02  2.19992747871E-01  1.86854197152E+01

  34  34   1    6 C    -2.89639254179E-01  3.02730887385E-01  8.59215824528E+00

  35  35   1    6 C    -3.82682088950E-02  3.86658701334E-01  1.86867508375E+01

  36  36   1    6 C    -4.55938074190E-01  1.36519219152E-01  1.19527733367E+01

  37  37   1    6 C    -2.89267260755E-01  1.36309483411E-01  1.19571163580E+01

  38  38   1    6 C    -2.89412573339E-01  4.69466251241E-01  1.19590165378E+01

  39  39   1    6 C    -4.56149102033E-01  3.02948747666E-01  1.19470482225E+01

  40  40   1    6 C    -1.22386198435E-01  3.02966933877E-01  1.19572699652E+01

  41  41   1    6 C    -1.22828232323E-01  4.69554234415E-01  1.19536245030E+01

  42  42   1    6 C     4.36913807100E-02 -1.97268624709E-01  8.59252100072E+00

  43  43   1    6 C     2.95067799944E-01 -1.13137156077E-01  1.86862577776E+01

  44  44   1    6 C     3.77023704880E-01 -3.63939312413E-01  8.59272207284E+00

  45  45   1    6 C     1.28418469358E-01 -2.80006753659E-01  1.86838427628E+01

  46  46   1    6 C     3.77027024601E-01 -3.05928528680E-02  8.59260024588E+00

  47  47   1    6 C     1.28613846951E-01 -4.46676640393E-01  1.86911543738E+01

  48  48   1    6 C     4.36911905050E-02 -3.06028612200E-02  8.59226411724E+00

  49  49   1    6 C     2.95020951459E-01 -4.46887901738E-01  1.86911909340E+01

  50  50   1    6 C     2.10361971467E-01 -3.63933175128E-01  8.59261071864E+00

  51  51   1    6 C     4.61570368324E-01 -2.80173423300E-01  1.86845958175E+01

  52  52   1    6 C     2.10358432398E-01 -1.97267032497E-01  8.59115651792E+00

  53  53   1    6 C     4.61653970820E-01 -1.13565718169E-01  1.86864152266E+01

  54  54   1    6 C     4.40384567480E-02 -3.63800860371E-01  1.19603212487E+01

  55  55   1    6 C     2.10715270510E-01 -3.63976205327E-01  1.19497099004E+01

  56  56   1    6 C     2.10714621194E-01 -3.01880576740E-02  1.19583259092E+01

  57  57   1    6 C     4.40352743620E-02 -1.97075815264E-01  1.19606322732E+01

  58  58   1    6 C     3.77375486334E-01 -1.97104257461E-01  1.19576124213E+01

  59  59   1    6 C     3.77382510542E-01 -3.03710677450E-02  1.19543515221E+01

  60  60   1    6 C    -4.56312247912E-01 -1.97270570821E-01  8.59292405912E+00

  61  61   1    6 C    -2.05148796044E-01 -1.13551961407E-01  1.86789081942E+01

  62  62   1    6 C    -1.22974961203E-01 -3.63939900898E-01  8.59194352920E+00

  63  63   1    6 C    -3.71816784373E-01 -2.80175168137E-01  1.86782837332E+01

  64  64   1    6 C    -1.22978377878E-01 -3.06067457180E-02  8.59292439460E+00

  65  65   1    6 C    -3.71986415923E-01 -4.46946940285E-01  1.86862161284E+01

  66  66   1    6 C    -4.56308109590E-01 -3.06014542150E-02  8.59126536152E+00

  67  67   1    6 C    -2.05183455169E-01 -4.46696079206E-01  1.86851332281E+01

  68  68   1    6 C    -2.89645346714E-01 -3.63943083056E-01  8.59410670772E+00

  69  69   1    6 C    -3.83114824700E-02 -2.80025640242E-01  1.86801408968E+01

  70  70   1    6 C    -2.89647384903E-01 -1.97275952452E-01  8.59221366992E+00

  71  71   1    6 C    -3.81178443630E-02 -1.13150324381E-01  1.86788078404E+01

  72  72   1    6 C    -4.56228675991E-01 -3.64080082383E-01  1.19576049979E+01

  73  73   1    6 C    -2.89477561623E-01 -3.63955186137E-01  1.19602525258E+01

  74  74   1    6 C    -2.89293224650E-01 -3.04270521450E-02  1.19631982978E+01

  75  75   1    6 C    -4.55967788514E-01 -1.97288179189E-01  1.19548753651E+01

  76  76   1    6 C    -1.22842478828E-01 -1.97272717789E-01  1.19642447386E+01

  77  77   1    6 C    -1.22424587073E-01 -3.02281874760E-02  1.19608925150E+01

 NUMBER OF SYMMETRY OPERATORS         :    1
 *******************************************************************************
 * GEOMETRY EDITING - INPUT COORDINATES ARE GIVEN IN ANGSTROM         
 *******************************************************************************
 INFORMATION **** NEW DEFAULT **** FINALRUN 4 FOR GEOMETRY OPTIMIZATIONS
 INFORMATION **** NEW DEFAULT **** OPTGEOM OPTIMIZES BOTH ATOMIC COORDINATES AND CELL PARAMETERS
 INFORMATION **** NEW DEFAULT **** TOL. ON ATOMIC DISP TO REDEFINE REF. GEOMETRY: 0.8 Angs
 INFORMATION **** NEW DEFAULT **** N POINTS TO REDEFINE REF. GEOMETRY: N OF OPT DEGS OF FREEDOM
 INFORMATION **** NEW DEFAULT **** TOL. ON ENERGY TO REDEFINE REF. GEOMETRY: 10**-3*(5*N. ATOMS)
 INFORMATION **** MAXCYCLE ****   MAXIMUM NUMBER OF OPTIMIZATION CYCLES         800
 INFORMATION **** TOLDEG **** MODIFY CONVERGENCE CRITERIUM FOR RMS GRADIENT  3.000000E-04
 INFORMATION **** TOLDEX ****  CONVERGENCE CRITERIUM FOR RMS DISPLACEMENT MODIFIED  1.200000E-04

 IMPORTANT INFORMATION:
 THE COORDINATE SYSTEM ADOPTED IN THE OPTIMIZATION IS NOT IN
 GENERAL HOMOGENEOUS UNITS. FOR THIS REASON THE GRADIENT AND 
 HESSIAN MATRIX IN TERMS OF THIS SYSTEM ARE GIVEN WITHOUT
 UNITS. FOR MORE DETAILS SEE THE MANUAL.

 *******************************************************************************
 COMBINED CELL/ATOM OPTIMIZATION CONTROL

 INITIAL TRUST RADIUS         0.50000 MAXIMUM TRUST RADIUS               4.00000
 MAXIMUM GRADIENT COMPONENT   0.00005 MAXIMUM DISPLACEMENT COMPONENT     0.00018
 R.M.S. OF GRADIENT COMPONENT 0.00003 R.M.S. OF DISPLACEMENT COMPONENTS  0.00012
 THRESHOLD ON ENERGY CHANGE 0.100E-06 EXTRAPOLATING POLYNOMIAL ORDER           2
 MAXIMUM ALLOWED NUMBER OF STEPS  800 SORTING OF ENERGY POINTS:               NO
 ANALYTICAL  GRADIENT                 HESSIAN UPDATING                      BFGS
 STEP SIZE NUMERICAL GRADIENT 0.00100
 INITIAL HESSIAN MATRIX: SCHLEGEL MODEL 2
 *******************************************************************************


 GCALCO - MAX INDICES DIRECT LATTICE VECTOR    83    83     0
 NO.OF VECTORS CREATED 6999 STARS 3500 RMAX   705.37535 BOHR

 GEOMETRY FOR WAVE FUNCTION - DIMENSIONALITY OF THE SYSTEM    2
 (NON PERIODIC DIRECTION: LATTICE PARAMETER FORMALLY SET TO 500)
 *******************************************************************************
 LATTICE PARAMETERS (ANGSTROMS AND DEGREES) - BOHR = 0.5291772083 ANGSTROM
 PRIMITIVE CELL
         A              B              C           ALPHA      BETA       GAMMA 
     8.49044166     8.49057792   500.00000000    90.000000  90.000000 120.004389
 *******************************************************************************
 ATOMS IN THE ASYMMETRIC UNIT   77 - ATOMS IN THE UNIT CELL:   77
     ATOM                 X/A                 Y/B             Z(ANGSTROM)
 *******************************************************************************
      1 T   6 C     4.370181537600E-02  3.027300037080E-01  8.593875914720E+00
      2 T   6 C     2.951153399830E-01  3.866793837590E-01  1.869657574328E+01
      3 T   6 C     3.770251887050E-01  1.360670457800E-01  8.592974437080E+00
      4 T   6 C     1.287072864650E-01  2.202367555790E-01  1.868678008632E+01
      5 T   6 C     3.770278282560E-01  4.693970636730E-01  8.595783178960E+00
      6 T   6 C     1.285429634540E-01  5.347105853100E-02  1.867829856620E+01
      7 T   6 C     4.369650621100E-02  4.693940595490E-01  8.591856566640E+00
      8 T   6 C     2.951498591640E-01  5.346986876200E-02  1.868462213052E+01
      9 T   6 C     2.103609708010E-01  1.360671294550E-01  8.594558390560E+00
     10 T   6 C     4.617060172130E-01  2.201800087210E-01  1.869010969668E+01
     11 T   6 C     2.103601835680E-01  3.027275731010E-01  8.594079598120E+00
     12 T   6 C     4.615995274390E-01  3.866083534530E-01  1.869658648136E+01
     13 T   5 B     3.774438907180E-01  3.865574009840E-01  1.531198867316E+01
     14 T   9 F     2.259965645340E-01  3.435082716540E-01  1.451126134412E+01
     15 T   9 F     3.385575455750E-01  2.361364925100E-01  1.610863306648E+01
     16 T   9 F     4.163014784930E-01 -4.631275998050E-01  1.610995108260E+01
     17 T   9 F    -4.710472043000E-01  4.297325250490E-01  1.451156097120E+01
     18 T   6 C     4.417951452800E-02  1.364089948910E-01  1.196523004700E+01
     19 T   6 C     2.109590909520E-01  1.366218280830E-01  1.195166600036E+01
     20 T   6 C     2.109309244070E-01  4.696233077170E-01  1.195397516032E+01
     21 T   6 C     4.423177586300E-02  3.030404476810E-01  1.195437649600E+01
     22 T   6 C     3.774146122750E-01  3.029812774000E-01  1.194778068572E+01
     23 T   6 C     3.773424280500E-01  4.694712074320E-01  1.194029226284E+01
     24 T   6 C    -4.563043942740E-01  3.027349266000E-01  8.594706212480E+00
     25 T   6 C    -2.050014386350E-01  3.866378362440E-01  1.868637500880E+01
     26 T   6 C    -1.229725874480E-01  1.360620163210E-01  8.591949058000E+00
     27 T   6 C    -3.718795418830E-01  2.199698945900E-01  1.869060338636E+01
     28 T   6 C    -1.229671204440E-01  4.693969602000E-01  8.592618114840E+00
     29 T   6 C    -3.716951786860E-01  5.329485541000E-02  1.868325110688E+01
     30 T   6 C    -4.563082671890E-01  4.693946653850E-01  8.594274847120E+00
     31 T   6 C    -2.049652497620E-01  5.331444039600E-02  1.868002602880E+01
     32 T   6 C    -2.896361343010E-01  1.360676827870E-01  8.592380911320E+00
     33 T   6 C    -3.809049884200E-02  2.199927478710E-01  1.868541971516E+01
     34 T   6 C    -2.896392541790E-01  3.027308873850E-01  8.592158245280E+00
     35 T   6 C    -3.826820889500E-02  3.866587013340E-01  1.868675083752E+01
     36 T   6 C    -4.559380741900E-01  1.365192191520E-01  1.195277333668E+01
     37 T   6 C    -2.892672607550E-01  1.363094834110E-01  1.195711635800E+01
     38 T   6 C    -2.894125733390E-01  4.694662512410E-01  1.195901653784E+01
     39 T   6 C    -4.561491020330E-01  3.029487476660E-01  1.194704822248E+01
     40 T   6 C    -1.223861984350E-01  3.029669338770E-01  1.195726996524E+01
     41 T   6 C    -1.228282323230E-01  4.695542344150E-01  1.195362450304E+01
     42 T   6 C     4.369138071000E-02 -1.972686247090E-01  8.592521000720E+00
     43 T   6 C     2.950677999440E-01 -1.131371560770E-01  1.868625777760E+01
     44 T   6 C     3.770237048800E-01 -3.639393124130E-01  8.592722072840E+00
     45 T   6 C     1.284184693580E-01 -2.800067536590E-01  1.868384276276E+01
     46 T   6 C     3.770270246010E-01 -3.059285286800E-02  8.592600245880E+00
     47 T   6 C     1.286138469510E-01 -4.466766403930E-01  1.869115437384E+01
     48 T   6 C     4.369119050500E-02 -3.060286122000E-02  8.592264117240E+00
     49 T   6 C     2.950209514590E-01 -4.468879017380E-01  1.869119093404E+01
     50 T   6 C     2.103619714670E-01 -3.639331751280E-01  8.592610718640E+00
     51 T   6 C     4.615703683240E-01 -2.801734233000E-01  1.868459581748E+01
     52 T   6 C     2.103584323980E-01 -1.972670324970E-01  8.591156517920E+00
     53 T   6 C     4.616539708200E-01 -1.135657181690E-01  1.868641522660E+01
     54 T   6 C     4.403845674800E-02 -3.638008603710E-01  1.196032124872E+01
     55 T   6 C     2.107152705100E-01 -3.639762053270E-01  1.194970990044E+01
     56 T   6 C     2.107146211940E-01 -3.018805767400E-02  1.195832590916E+01
     57 T   6 C     4.403527436200E-02 -1.970758152640E-01  1.196063227320E+01
     58 T   6 C     3.773754863340E-01 -1.971042574610E-01  1.195761242128E+01
     59 T   6 C     3.773825105420E-01 -3.037106774500E-02  1.195435152212E+01
     60 T   6 C    -4.563122479120E-01 -1.972705708210E-01  8.592924059120E+00
     61 T   6 C    -2.051487960440E-01 -1.135519614070E-01  1.867890819424E+01
     62 T   6 C    -1.229749612030E-01 -3.639399008980E-01  8.591943529200E+00
     63 T   6 C    -3.718167843730E-01 -2.801751681370E-01  1.867828373320E+01
     64 T   6 C    -1.229783778780E-01 -3.060674571800E-02  8.592924394600E+00
     65 T   6 C    -3.719864159230E-01 -4.469469402850E-01  1.868621612836E+01
     66 T   6 C    -4.563081095900E-01 -3.060145421500E-02  8.591265361520E+00
     67 T   6 C    -2.051834551690E-01 -4.466960792060E-01  1.868513322808E+01
     68 T   6 C    -2.896453467140E-01 -3.639430830560E-01  8.594106707720E+00
     69 T   6 C    -3.831148247000E-02 -2.800256402420E-01  1.868014089680E+01
     70 T   6 C    -2.896473849030E-01 -1.972759524520E-01  8.592213669920E+00
     71 T   6 C    -3.811784436300E-02 -1.131503243810E-01  1.867880784036E+01
     72 T   6 C    -4.562286759910E-01 -3.640800823830E-01  1.195760499788E+01
     73 T   6 C    -2.894775616230E-01 -3.639551861370E-01  1.196025252580E+01
     74 T   6 C    -2.892932246500E-01 -3.042705214500E-02  1.196319829784E+01
     75 T   6 C    -4.559677885140E-01 -1.972881791890E-01  1.195487536508E+01
     76 T   6 C    -1.228424788280E-01 -1.972727177890E-01  1.196424473856E+01
     77 T   6 C    -1.224245870730E-01 -3.022818747600E-02  1.196089251500E+01

 T = ATOM BELONGING TO THE ASYMMETRIC UNIT

 ****    1 SYMMOPS - TRANSLATORS IN FRACTIONAL UNITS
 **** MATRICES AND TRANSLATORS IN THE CRYSTALLOGRAPHIC REFERENCE FRAME
   V INV                    ROTATION MATRICES                   TRANSLATORS
   1   1  1.00 -0.00  0.00  0.00  1.00  0.00 -0.00  0.00  1.00  0.00  0.00  0.00

 DIRECT LATTICE VECTORS CARTESIAN COMPONENTS (ANGSTROM)
          X                    Y                    Z
   0.735261295080E+01  -0.424578407100E+01   0.000000000000E+00
   0.000000000000E+00   0.849057792000E+01   0.000000000000E+00
   0.000000000000E+00   0.000000000000E+00   0.500000000000E+03


 CARTESIAN COORDINATES - PRIMITIVE CELL
 *******************************************************************************
 *      ATOM          X(ANGSTROM)         Y(ANGSTROM)         Z(ANGSTROM)
 *******************************************************************************
    1     6 C     3.213225337072E-01  2.384804213608E+00  8.593875914720E+00
    2     6 C     2.169868870740E+00  2.030135428257E+00  1.869657574328E+01
    3     6 C     2.772120285252E+00 -4.454796860288E-01  8.592974437080E+00
    4     6 C     9.463348613255E-01  1.323473987397E+00  1.868678008632E+01
    5     6 C     2.772139692849E+00  2.384673597003E+00  8.595783178960E+00
    6     6 C     9.451266578267E-01 -9.176547774933E-02  1.867829856620E+01
    7     6 C     3.212834974719E-01  3.799900907757E+00  8.591856566640E+00
    8     6 C     2.170122676917E+00 -7.991524834994E-01  1.868462213052E+01
    9     6 C     1.546702798255E+00  2.621413060022E-01  8.594558390560E+00
   10     6 C     3.394745641625E+00 -9.084853289422E-02  1.869010969668E+01
   11     6 C     1.546697010036E+00  1.677188131382E+00  8.594079598120E+00
   12     6 C     3.393962663533E+00  1.322676428736E+00  1.869658648136E+01
   13     5 B     2.775198839095E+00  1.679550474702E+00  1.531198867316E+01
   14     9 F     1.661665267230E+00  1.957051132844E+00  1.451126134412E+01
   15     9 F     2.489282594187E+00  5.674930552937E-01  1.610863306648E+01
   16     9 F     3.060903642207E+00  2.790830760835E+00  1.610995108260E+01
   17     9 F     3.889185176028E+00  1.402858134395E+00  1.451156097120E+01
   18     6 C     3.248348706788E-01  9.706145210636E-01  1.196523004700E+01
   19     6 C     1.551100544224E+00  2.643115289157E-01  1.195166600036E+01
   20     6 C     1.550893446520E+00  3.091806128292E+00  1.195397516032E+01
   21     6 C     3.252191280474E-01  2.385189964556E+00  1.195437649600E+01
   22     6 C     2.774983566036E+00  9.700651951074E-01  1.194778068572E+01
   23     6 C     2.774452823368E+00  2.383967397572E+00  1.194029226284E+01
   24     6 C     3.997583351956E+00  2.619803411406E-01  8.594706212480E+00
   25     6 C    -1.507296232641E+00  4.153170518138E+00  1.868637500880E+01
   26     6 C    -9.041698390641E-01  1.677360204482E+00  8.591949058000E+00
   27     6 C    -2.734286335788E+00  3.446591765327E+00  1.869060338636E+01
   28     6 C    -9.041296422997E-01 -3.983034612773E+00  8.592618114840E+00
   29     6 C    -2.732930784558E+00  2.030641591525E+00  1.868325110688E+01
   30     6 C    -3.355058074893E+00 -2.567759566021E+00  8.594274847120E+00
   31     6 C    -1.507030149865E+00  1.322908602991E+00  1.868002602880E+01
   32     6 C    -2.129582392082E+00  2.385025748497E+00  8.592380911320E+00
   33     6 C    -2.800646950883E-01  2.029589600873E+00  1.868541971516E+01
   34     6 C    -2.129605331338E+00  3.800105919862E+00  8.592158245280E+00
   35     6 C    -2.813713283255E-01  3.445434383874E+00  1.868675083752E+01
   36     6 C     4.000276761750E+00 -1.150842390452E+00  1.195277333668E+01
   37     6 C    -2.126870207671E+00  2.385512618110E+00  1.195711635800E+01
   38     6 C    -2.127938634858E+00 -3.275754839199E+00  1.195901653784E+01
   39     6 C     3.998725155699E+00  2.631364682392E-01  1.194704822248E+01
   40     6 C    -8.998583476129E-01  3.091989731091E+00  1.195726996524E+01
   41     6 C    -9.031084517025E-01 -3.982288952768E+00  1.195362450304E+01
   42     6 C     3.212458116469E-01 -1.860428797521E+00  8.592521000720E+00
   43     6 C     2.169519327234E+00 -2.213394004185E+00  1.868625777760E+01
   44     6 C    -4.580503575543E+00 -4.450322597649E-01  8.592722072840E+00
   45     6 C     9.442113009241E-01 -2.922656251690E+00  1.868384276276E+01
   46     6 C     2.772133783885E+00 -1.860526336457E+00  8.592600245880E+00
   47     6 C     9.456478367447E-01  4.151968477005E+00  1.869115437384E+01
   48     6 C     3.212444131431E-01 -4.453393384524E-01  8.592264117240E+00
   49     6 C     2.169174868456E+00  3.443646112473E+00  1.869119093404E+01
   50     6 C     1.546710155765E+00 -3.983154488695E+00  8.592610718640E+00
   51     6 C    -3.958864682958E+00 -9.277832811936E-02  1.868459581748E+01
   52     6 C     1.546684134360E+00 -2.568047591938E+00  8.591156517920E+00
   53     6 C    -3.958249986163E+00  1.321462416222E+00  1.868641522660E+01
   54     6 C     3.237977274188E-01 -3.275857330515E+00  1.196032124872E+01
   55     6 C     1.549307826884E+00 -3.985019871402E+00  1.194970990044E+01
   56     6 C     1.549303052715E+00 -1.150962838126E+00  1.195832590916E+01
   57     6 C     3.237743285663E-01 -1.860251832095E+00  1.196063227320E+01
   58     6 C     2.774695888135E+00 -3.275783884998E+00  1.195761242128E+01
   59     6 C     2.774747534418E+00 -1.860152569134E+00  1.195435152212E+01
   60     6 C    -3.355087343608E+00  2.624621207068E-01  8.592924059120E+00
   61     6 C    -1.508379694635E+00 -9.310428586726E-02  1.867890819424E+01
   62     6 C    -9.041872923658E-01 -2.567934955364E+00  8.591943529200E+00
   63     6 C    -2.733824904107E+00 -8.001953158963E-01  1.867828373320E+01
   64     6 C    -9.042124138547E-01  2.622706784751E-01  8.592924394600E+00
   65     6 C    -2.735072139239E+00 -2.215463823242E+00  1.868621612836E+01
   66     6 C    -3.355056916129E+00  1.677561671686E+00  8.591265361520E+00
   67     6 C    -1.508634529766E+00 -2.921543221468E+00  1.868513322808E+01
   68     6 C    -2.129650127390E+00 -1.860315505815E+00  8.594106707720E+00
   69     6 C    -2.816895021734E-01 -2.214917236065E+00  1.868014089680E+01
   70     6 C    -2.129665113404E+00 -4.452065930090E-01  8.592213669920E+00
   71     6 C    -2.802657561201E-01 -7.988715094130E-01  1.867880784036E+01
   72     6 C    -3.354472871620E+00 -1.154201863339E+00  1.195760499788E+01
   73     6 C    -2.128416468557E+00 -1.861130647234E+00  1.196025252580E+01
   74     6 C    -2.127061110142E+00  9.699333079531E-01  1.196319829784E+01
   75     6 C    -3.352554666978E+00  2.608501152611E-01  1.195487536508E+01
   76     6 C    -9.032132007397E-01 -1.153396742028E+00  1.196424473856E+01
   77     6 C    -9.001406044098E-01  2.631335805475E-01  1.196089251500E+01

 *******************************************************************************
 STARTING BASIS SET HANDLING 
 *******************************************************************************

 Loading internal basis set: SOL-DEF2-MSVP       

 Please cite in your publication:
 L. Dona', J. G. Brandenburg and B. Civalleri, J. Chem. Phys., 151, 121101 (2019
 )                                                                              
                                                                                
                    

 *******************************************************************************
 LOCAL ATOMIC FUNCTIONS BASIS SET
 *******************************************************************************
   ATOM   X(AU)   Y(AU)   Z(AU)  N. TYPE  EXPONENT  S COEF   P COEF   D/F/G COEF
 *******************************************************************************
   1 C    0.607   4.507  16.240
                                  1 S  
                                         3.624E+03 1.634E-03 0.000E+00 0.000E+00
                                         5.440E+02 1.252E-02 0.000E+00 0.000E+00
                                         1.237E+02 6.211E-02 0.000E+00 0.000E+00
                                         3.476E+01 2.182E-01 0.000E+00 0.000E+00
                                         1.093E+01 4.980E-01 0.000E+00 0.000E+00
                                  2 S  
                                         3.574E+00 1.000E+00 0.000E+00 0.000E+00
                                  3 S  
                                         7.742E-01 1.000E+00 0.000E+00 0.000E+00
                                  4 S  
                                         2.330E-01 1.000E+00 0.000E+00 0.000E+00
                           5-     7 P  
                                         9.443E+00 0.000E+00 3.790E-02 0.000E+00
                                         2.002E+00 0.000E+00 2.082E-01 0.000E+00
                                         5.463E-01 0.000E+00 5.047E-01 0.000E+00
                           8-    10 P  
                                         1.820E-01 0.000E+00 1.000E+00 0.000E+00
                          11-    15 D  
                                         8.880E-01 0.000E+00 0.000E+00 1.000E+00
   2 C    4.100   3.836  35.331
   3 C    5.239  -0.842  16.238
   4 C    1.788   2.501  35.313
   5 C    5.239   4.506  16.244
   6 C    1.786  -0.173  35.297
   7 C    0.607   7.181  16.236
   8 C    4.101  -1.510  35.309
   9 C    2.923   0.495  16.241
  10 C    6.415  -0.172  35.319
  11 C    2.923   3.169  16.240
  12 C    6.414   2.499  35.331
  13 B    5.244   3.174  28.935
                                181 S  
                                         2.410E+03 1.755E-03 0.000E+00 0.000E+00
                                         3.619E+02 1.344E-02 0.000E+00 0.000E+00
                                         8.231E+01 6.637E-02 0.000E+00 0.000E+00
                                         2.311E+01 2.303E-01 0.000E+00 0.000E+00
                                         7.252E+00 5.150E-01 0.000E+00 0.000E+00
                                182 S  
                                         2.367E+00 1.000E+00 0.000E+00 0.000E+00
                                183 S  
                                         5.533E-01 1.000E+00 0.000E+00 0.000E+00
                                184 S  
                                         1.716E-01 1.000E+00 0.000E+00 0.000E+00
                         185-   187 P  
                                         6.002E+00 0.000E+00-3.555E-02 0.000E+00
                                         1.240E+00 0.000E+00-1.983E-01 0.000E+00
                                         3.367E-01 0.000E+00-5.048E-01 0.000E+00
                         188-   190 P  
                                         1.256E-01 0.000E+00 1.000E+00 0.000E+00
                         191-   195 D  
                                         8.880E-01 0.000E+00 0.000E+00 1.000E+00
  14 F    3.140   3.698  27.422
                                196 S  
                                         8.710E+03 1.394E-03 0.000E+00 0.000E+00
                                         1.307E+03 1.070E-02 0.000E+00 0.000E+00
                                         2.974E+02 5.339E-02 0.000E+00 0.000E+00
                                         8.360E+01 1.911E-01 0.000E+00 0.000E+00
                                         2.639E+01 4.499E-01 0.000E+00 0.000E+00
                                197 S  
                                         8.650E+00 1.000E+00 0.000E+00 0.000E+00
                                198 S  
                                         1.712E+00 1.000E+00 0.000E+00 0.000E+00
                                199 S  
                                         4.941E-01 1.000E+00 0.000E+00 0.000E+00
                         200-   202 P  
                                         2.267E+01 0.000E+00 3.403E-02 0.000E+00
                                         4.976E+00 0.000E+00 1.787E-01 0.000E+00
                                         1.348E+00 0.000E+00 3.850E-01 0.000E+00
                         203-   205 P  
                                         3.778E-01 0.000E+00 1.000E+00 0.000E+00
                         206-   210 D  
                                         5.550E-01 0.000E+00 0.000E+00 1.000E+00
  15 F    4.704   1.072  30.441
  16 F    5.784   5.274  30.443
  17 F    7.349   2.651  27.423
  18 C    0.614   1.834  22.611
  19 C    2.931   0.499  22.585
  20 C    2.931   5.843  22.590
  21 C    0.615   4.507  22.590
  22 C    5.244   1.833  22.578
  23 C    5.243   4.505  22.564
  24 C    7.554   0.495  16.242
  25 C   -2.848   7.848  35.312
  26 C   -1.709   3.170  16.236
  27 C   -5.167   6.513  35.320
  28 C   -1.709  -7.527  16.238
  29 C   -5.164   3.837  35.306
  30 C   -6.340  -4.852  16.241
  31 C   -2.848   2.500  35.300
  32 C   -4.024   4.507  16.237
  33 C   -0.529   3.835  35.310
  34 C   -4.024   7.181  16.237
  35 C   -0.532   6.511  35.313
  36 C    7.559  -2.175  22.587
  37 C   -4.019   4.508  22.596
  38 C   -4.021  -6.190  22.599
  39 C    7.556   0.497  22.577
  40 C   -1.700   5.843  22.596
  41 C   -1.707  -7.525  22.589
  42 C    0.607  -3.516  16.238
  43 C    4.100  -4.183  35.312
  44 C   -8.656  -0.841  16.238
  45 C    1.784  -5.523  35.307
  46 C    5.239  -3.516  16.238
  47 C    1.787   7.846  35.321
  48 C    0.607  -0.842  16.237
  49 C    4.099   6.508  35.321
  50 C    2.923  -7.527  16.238
  51 C   -7.481  -0.175  35.309
  52 C    2.923  -4.853  16.235
  53 C   -7.480   2.497  35.312
  54 C    0.612  -6.190  22.602
  55 C    2.928  -7.531  22.582
  56 C    2.928  -2.175  22.598
  57 C    0.612  -3.515  22.602
  58 C    5.243  -6.190  22.597
  59 C    5.244  -3.515  22.590
  60 C   -6.340   0.496  16.238
  61 C   -2.850  -0.176  35.298
  62 C   -1.709  -4.853  16.236
  63 C   -5.166  -1.512  35.297
  64 C   -1.709   0.496  16.238
  65 C   -5.169  -4.187  35.312
  66 C   -6.340   3.170  16.235
  67 C   -2.851  -5.521  35.310
  68 C   -4.024  -3.515  16.241
  69 C   -0.532  -4.186  35.300
  70 C   -4.024  -0.841  16.237
  71 C   -0.530  -1.510  35.298
  72 C   -6.339  -2.181  22.597
  73 C   -4.022  -3.517  22.602
  74 C   -4.020   1.833  22.607
  75 C   -6.335   0.493  22.591
  76 C   -1.707  -2.180  22.609
  77 C   -1.701   0.497  22.603

 *******************************************************************************
 FINISHED BASIS SET HANDLING 
 *******************************************************************************

 INFORMATION **** SET_MPP **** PCRYSTAL CALCULATION
 INFORMATION **** READM2 **** NEW DEFAULT: FOCK/KS MATRIX MIXING SET TO 30 %
 INFORMATION **** READM2 **** NEW DEFAULT: FULL DIRECT SCF MODE
 INFORMATION **** READM2 **** NEW DEFAULT: COULOMB BIPOLAR BUFFER SET TO 32 Mb
 INFORMATION **** READM2 **** NEW DEFAULT: EXCHANGE BIPOLAR BUFFER SET TO 32 Mb

 *******************************************************************************
 NEW DEFAULT: DFT INTEGRATION GRID INCREASED TO XLGRID
 NEW DEFAULT: DIIS ACCELERATOR ACTIVE
 USE KEYWORD NODIIS TO TURN IT OFF
 *******************************************************************************

 WARNING **** RDDFTP **** HSEsol-HJS ACTIVE
 RANGE SEPARATION - OMEGA:   0.110000000000000     
 WARNING **** RDDFTP **** HSEsol-3c has to be combined with sol-def2-mSVP basis set
 INFORMATION **** TOLINTEG **** COULOMB AND EXCHANGE SERIES TOLERANCES MODIFIED
 INFORMATION **** TOLDEE **** SCF TOL ON TOTAL ENERGY SET TO          11
 INFORMATION **** MAXCYCLE **** MAX NUMBER OF SCF CYCLES SET TO         800
 INFORMATION **** PPAN ****  MULLIKEN POPULATION ANALYSIS AT THE END OF SCF
 *******************************************************************************
 N. OF ATOMS PER CELL        77  COULOMB OVERLAP TOL         (T1) 10**   -9
 NUMBER OF SHELLS           539  COULOMB PENETRATION TOL     (T2) 10**   -9
 NUMBER OF AO              1155  EXCHANGE OVERLAP TOL        (T3) 10**   -9
 N. OF ELECTRONS PER CELL   473  EXCHANGE PSEUDO OVP (F(G))  (T4) 10**  -11
 CORE ELECTRONS PER CELL    154  EXCHANGE PSEUDO OVP (P(G))  (T5) 10**  -38
 N. OF SYMMETRY OPERATORS     1  POLE ORDER IN MONO ZONE                  4
 *******************************************************************************
 TYPE OF CALCULATION :  UNRESTRICTED OPEN SHELL
 KOHN-SHAM HAMILTONIAN

 (EXCHANGE)[CORRELATION] FUNCTIONAL:(HSEsol GGA)[PBEsol]

 RANGE-SEPARATED HYBRID FUNCTIONAL 
 OMEGA (SHORT-RANGE)[LONG-RANGE]:(    0.1100)[    0.0000]

 HYBRID EXCHANGE - PERCENTAGE OF FOCK EXCHANGE    25.0000

 SPIN POLARIZED DFT SELECTED

 CAPPA:IS1  6;IS2  6;IS3  1; K PTS MONK NET  20; SYMMOPS:K SPACE   2;G SPACE   1

 *******************************************************************************
 MAX NUMBER OF SCF CYCLES     800  CONVERGENCE ON DELTAP        10**-21
 WEIGHT OF F(I) IN F(I+1)      30% CONVERGENCE ON ENERGY        10**-11
 SHRINK. FACT.(MONKH.)    6  6  1  NUMBER OF K POINTS IN THE IBZ     20
 SHRINKING FACTOR(GILAT NET)   12  NUMBER OF K POINTS(GILAT NET)     74
 *******************************************************************************
 *** K POINTS COORDINATES (OBLIQUE COORDINATES IN UNITS OF IS =  6)
   1-R(  0  0  0)   2-C(  1  0  0)   3-C(  2  0  0)   4-R(  3  0  0)
   5-C(  0  1  0)   6-C(  1  1  0)   7-C(  2  1  0)   8-C(  3  1  0)
   9-C(  4  1  0)  10-C(  5  1  0)  11-C(  0  2  0)  12-C(  1  2  0)
  13-C(  2  2  0)  14-C(  3  2  0)  15-C(  4  2  0)  16-C(  5  2  0)
  17-R(  0  3  0)  18-C(  1  3  0)  19-C(  2  3  0)  20-R(  3  3  0)

 DIRECT LATTICE VECTORS COMPON. (A.U.)     RECIP. LATTICE VECTORS COMPON. (A.U.) 
        X            Y            Z              X            Y            Z
   13.8944248   -8.0233691    0.0000000      0.4522091    0.0000000    0.0000000
    0.0000000   16.0448670    0.0000000      0.2261309    0.3916010    0.0000000
    0.0000000    0.0000000  944.8630670      0.0000000    0.0000000    0.0066498

 DISK SPACE FOR EIGENVECTORS (FTN 10)    48024900 REALS

 SYMMETRY ADAPTION OF THE BLOCH FUNCTIONS DISABLED
 TTTTTTTTTTTTTTTTTTTTTTTTTTTTTT gordsh1     TELAPSE        2.10 TCPU        1.28

 MATRIX SIZE: P(G) 5310513, F(G)  510270, P(G) IRR 2663651, F(G) IRR  512816
 MAX G-VECTOR INDEX FOR 1- AND 2-ELECTRON INTEGRALS  31

 TTTTTTTTTTTTTTTTTTTTTTTTTTTTTT INPUT       TELAPSE        2.63 TCPU        1.82

 NEIGHBORS OF THE NON-EQUIVALENT ATOMS

 N = NUMBER OF NEIGHBORS AT DISTANCE R
    ATOM  N     R/ANG      R/AU   NEIGHBORS (ATOM LABELS AND CELL INDICES)
   1 C    1     1.4150     2.6740   11 C    0 0 0
   1 C    1     1.4150     2.6740   26 C    0 0 0
   1 C    1     1.4151     2.6741    7 C    0 0 0
   1 C    1     2.4508     4.6314    5 C    0 0 0
   1 C    1     2.4509     4.6315   32 C    0 0 0
   1 C    1     2.4509     4.6316   64 C    0 0 0

   2 C    1     1.4130     2.6701    4 C    0 0 0
   2 C    1     1.4135     2.6712   49 C    0 0 0
   2 C    1     1.4138     2.6717   12 C    0 0 0
   2 C    1     2.4477     4.6255   65 C    1 1 0
   2 C    1     2.4493     4.6285   10 C    0 0 0
   2 C    1     2.4496     4.6290   51 C    1 1 0

   3 C    1     1.4150     2.6740   24 C    0 0 0
   3 C    1     1.4150     2.6741   46 C    0 0 0
   3 C    1     1.4151     2.6741    9 C    0 0 0
   3 C    1     2.4509     4.6315   30 C    1 1 0
   3 C    1     2.4509     4.6315   48 C    0 0 0
   3 C    1     2.4509     4.6315   34 C    1 0 0

   4 C    1     1.4130     2.6701    2 C    0 0 0
   4 C    1     1.4152     2.6743   33 C    0 0 0
   4 C    1     1.4153     2.6745    6 C    0 0 0
   4 C    1     2.4475     4.6252   49 C    0 0 0
   4 C    1     2.4476     4.6254   12 C    0 0 0
   4 C    1     2.4501     4.6301    8 C    0 0 0

   5 C    1     1.4150     2.6740   11 C    0 0 0
   5 C    1     1.4151     2.6741   30 C    1 1 0
   5 C    1     1.4151     2.6741   44 C    1 1 0
   5 C    1     2.4508     4.6314    1 C    0 0 0
   5 C    1     2.4508     4.6314   68 C    1 1 0
   5 C    1     2.4509     4.6315    9 C    0 0 0

   6 C    1     1.4146     2.6732    8 C    0 0 0
   6 C    1     1.4148     2.6735   71 C    0 0 0
   6 C    1     1.4153     2.6745    4 C    0 0 0
   6 C    1     2.4496     4.6291   43 C    0 0 0
   6 C    1     2.4496     4.6292   10 C    0 0 0
   6 C    1     2.4498     4.6294   33 C    0 0 0

   7 C    1     1.4150     2.6740   50 C    0 1 0
   7 C    1     1.4151     2.6741   28 C    0 1 0
   7 C    1     1.4151     2.6741    1 C    0 0 0
   7 C    1     2.4508     4.6314   44 C    1 1 0
   7 C    1     2.4509     4.6315   34 C    0 0 0
   7 C    1     2.4509     4.6315   26 C    0 0 0

   8 C    1     1.4142     2.6725   43 C    0 0 0
   8 C    1     1.4146     2.6732    6 C    0 0 0
   8 C    1     1.4147     2.6734   10 C    0 0 0
   8 C    1     2.4482     4.6264   27 C    1 0 0
   8 C    1     2.4495     4.6289   12 C    0 0 0
   8 C    1     2.4501     4.6301    4 C    0 0 0

   9 C    1     1.4150     2.6740   48 C    0 0 0
   9 C    1     1.4150     2.6741   11 C    0 0 0
   9 C    1     1.4151     2.6741    3 C    0 0 0
   9 C    1     2.4509     4.6315   24 C    0 0 0
   9 C    1     2.4509     4.6315    5 C    0 0 0
   9 C    1     2.4509     4.6316   64 C    0 0 0

  10 C    1     1.4135     2.6712   12 C    0 0 0
  10 C    1     1.4138     2.6717   27 C    1 0 0
  10 C    1     1.4147     2.6734    8 C    0 0 0
  10 C    1     2.4475     4.6252   65 C    1 1 0
  10 C    1     2.4493     4.6285    2 C    0 0 0
  10 C    1     2.4496     4.6292    6 C    0 0 0

  11 C    1     1.4150     2.6740    5 C    0 0 0
  11 C    1     1.4150     2.6740    1 C    0 0 0
  11 C    1     1.4150     2.6741    9 C    0 0 0
  11 C    1     2.4509     4.6315   30 C    1 1 0
  11 C    1     2.4509     4.6315   26 C    0 0 0
  11 C    1     2.4509     4.6315   48 C    0 0 0

  12 C    1     1.4130     2.6702   65 C    1 1 0
  12 C    1     1.4135     2.6712   10 C    0 0 0
  12 C    1     1.4138     2.6717    2 C    0 0 0
  12 C    1     2.4476     4.6254    4 C    0 0 0
  12 C    1     2.4492     4.6283   49 C    0 0 0
  12 C    1     2.4495     4.6289    8 C    0 0 0

  13 B    1     1.3975     2.6409   15 F    0 0 0
  13 B    1     1.3976     2.6411   16 F    0 0 0
  13 B    1     1.3993     2.6444   14 F    0 0 0
  13 B    1     1.3994     2.6444   17 F    0 0 0
  13 B    1     3.4382     6.4973   22 C    0 0 0
  13 B    1     3.4445     6.5092   23 C    0 0 0

  14 F    1     1.3993     2.6444   13 B    0 0 0
  14 F    1     2.2732     4.2957   15 F    0 0 0
  14 F    1     2.2823     4.3129   16 F    0 0 0
  14 F    1     2.2954     4.3377   17 F    0 0 0
  14 F    1     2.7999     5.2911   20 C    0 0 0
  14 F    1     2.8338     5.3551   23 C    0 0 0

  15 F    1     1.3975     2.6409   13 B    0 0 0
  15 F    1     2.2732     4.2957   14 F    0 0 0
  15 F    1     2.2821     4.3126   17 F    0 0 0
  15 F    1     2.2956     4.3381   16 F    0 0 0
  15 F    1     2.8138     5.3173   10 C    0 0 0
  15 F    1     2.8436     5.3737   12 C    0 0 0

  16 F    1     1.3976     2.6411   13 B    0 0 0
  16 F    1     2.2732     4.2957   17 F    0 0 0
  16 F    1     2.2823     4.3129   14 F    0 0 0
  16 F    1     2.2956     4.3381   15 F    0 0 0
  16 F    1     2.8079     5.3061   49 C    0 0 0
  16 F    1     2.8396     5.3660    2 C    0 0 0

  17 F    1     1.3994     2.6444   13 B    0 0 0
  17 F    1     2.2732     4.2957   16 F    0 0 0
  17 F    1     2.2821     4.3126   15 F    0 0 0
  17 F    1     2.2954     4.3377   14 F    0 0 0
  17 F    1     2.8085     5.3073   39 C    0 0 0
  17 F    1     2.8287     5.3455   22 C    0 0 0

  18 C    1     1.4146     2.6732   77 C    0 0 0
  18 C    1     1.4146     2.6732   21 C    0 0 0
  18 C    1     1.4152     2.6743   19 C    0 0 0
  18 C    1     2.4495     4.6289   40 C    0 0 0
  18 C    1     2.4496     4.6290   56 C    0 0 0
  18 C    1     2.4501     4.6299   20 C    0 0 0

  19 C    1     1.4128     2.6698   22 C    0 0 0
  19 C    1     1.4152     2.6743   18 C    0 0 0
  19 C    1     1.4153     2.6745   56 C    0 0 0
  19 C    1     2.4474     4.6249   23 C    0 0 0
  19 C    1     2.4476     4.6253   39 C    0 0 0
  19 C    1     2.4497     4.6292   21 C    0 0 0

  20 C    1     1.4136     2.6714   23 C    0 0 0
  20 C    1     1.4138     2.6716   55 C    0 1 0
  20 C    1     1.4148     2.6735   21 C    0 0 0
  20 C    1     2.4472     4.6246   72 C    1 1 0
  20 C    1     2.4495     4.6289   22 C    0 0 0
  20 C    1     2.4501     4.6299   18 C    0 0 0

  21 C    1     1.4144     2.6727   40 C    0 0 0
  21 C    1     1.4146     2.6732   18 C    0 0 0
  21 C    1     1.4148     2.6735   20 C    0 0 0
  21 C    1     2.4483     4.6267   55 C    0 1 0
  21 C    1     2.4493     4.6285   23 C    0 0 0
  21 C    1     2.4497     4.6292   19 C    0 0 0

  22 C    1     1.4128     2.6698   19 C    0 0 0
  22 C    1     1.4133     2.6707   39 C    0 0 0
  22 C    1     1.4139     2.6719   23 C    0 0 0
  22 C    1     2.4480     4.6261   72 C    1 1 0
  22 C    1     2.4494     4.6287   36 C    0 0 0
  22 C    1     2.4495     4.6289   20 C    0 0 0

  23 C    1     1.4132     2.6705   72 C    1 1 0
  23 C    1     1.4136     2.6714   20 C    0 0 0
  23 C    1     1.4139     2.6719   22 C    0 0 0
  23 C    1     2.4474     4.6249   19 C    0 0 0
  23 C    1     2.4488     4.6276   39 C    0 0 0
  23 C    1     2.4493     4.6285   21 C    0 0 0

  24 C    1     1.4150     2.6740    3 C    0 0 0
  24 C    1     1.4151     2.6741   30 C    1 1 0
  24 C    1     1.4151     2.6741   34 C    1 0 0
  24 C    1     2.4508     4.6314   68 C    1 1 0
  24 C    1     2.4509     4.6315   46 C    0 0 0
  24 C    1     2.4509     4.6315    9 C    0 0 0

  25 C    1     1.4156     2.6750   35 C    0 0 0
  25 C    1     1.4159     2.6756   67 C    0 1 0
  25 C    1     1.4159     2.6757   27 C    0 0 0
  25 C    1     2.4506     4.6309   10 C   -1 0 0
  25 C    1     2.4509     4.6316   69 C    0 1 0
  25 C    1     2.4510     4.6317   29 C    0 0 0

  26 C    1     1.4150     2.6740    1 C    0 0 0
  26 C    1     1.4151     2.6741   32 C    0 0 0
  26 C    1     1.4151     2.6741   64 C    0 0 0
  26 C    1     2.4509     4.6315   11 C    0 0 0
  26 C    1     2.4509     4.6315   66 C    0 0 0
  26 C    1     2.4509     4.6315    7 C    0 0 0

  27 C    1     1.4138     2.6717   10 C   -1 0 0
  27 C    1     1.4159     2.6757   25 C    0 0 0
  27 C    1     1.4160     2.6758   29 C    0 0 0
  27 C    1     2.4482     4.6264    8 C   -1 0 0
  27 C    1     2.4498     4.6294   12 C   -1 0 0
  27 C    1     2.4509     4.6316   67 C    0 1 0

  28 C    1     1.4150     2.6740   34 C    0-1 0
  28 C    1     1.4151     2.6741    7 C    0-1 0
  28 C    1     1.4151     2.6742   62 C    0 0 0
  28 C    1     2.4508     4.6314   50 C    0 0 0
  28 C    1     2.4509     4.6315   32 C    0-1 0
  28 C    1     2.4509     4.6315   24 C   -1-1 0

  29 C    1     1.4155     2.6750   31 C    0 0 0
  29 C    1     1.4158     2.6754   53 C    0 0 0
  29 C    1     1.4160     2.6758   27 C    0 0 0
  29 C    1     2.4502     4.6301   43 C   -1 0 0
  29 C    1     2.4510     4.6317   25 C    0 0 0
  29 C    1     2.4515     4.6327   61 C    0 0 0

  30 C    1     1.4150     2.6739   68 C    0 0 0
  30 C    1     1.4151     2.6741   24 C   -1-1 0
  30 C    1     1.4151     2.6741    5 C   -1-1 0
  30 C    1     2.4509     4.6315   11 C   -1-1 0
  30 C    1     2.4509     4.6315    3 C   -1-1 0
  30 C    1     2.4509     4.6315   62 C    0 0 0

  31 C    1     1.4155     2.6750   29 C    0 0 0
  31 C    1     1.4159     2.6757   33 C    0 0 0
  31 C    1     1.4160     2.6759   61 C    0 0 0
  31 C    1     2.4509     4.6315   71 C    0 0 0
  31 C    1     2.4510     4.6317   35 C    0 0 0
  31 C    1     2.4512     4.6322   53 C    0 0 0

  32 C    1     1.4150     2.6740   66 C    0 0 0
  32 C    1     1.4151     2.6741   26 C    0 0 0
  32 C    1     1.4151     2.6741   34 C    0 0 0
  32 C    1     2.4509     4.6315   28 C    0 1 0
  32 C    1     2.4509     4.6315   46 C   -1 0 0
  32 C    1     2.4509     4.6315    1 C    0 0 0

  33 C    1     1.4152     2.6743    4 C    0 0 0
  33 C    1     1.4158     2.6756   35 C    0 0 0
  33 C    1     1.4159     2.6757   31 C    0 0 0
  33 C    1     2.4498     4.6294    6 C    0 0 0
  33 C    1     2.4500     4.6298    2 C    0 0 0
  33 C    1     2.4509     4.6315   47 C    0 0 0

  34 C    1     1.4150     2.6740   28 C    0 1 0
  34 C    1     1.4151     2.6741   24 C   -1 0 0
  34 C    1     1.4151     2.6741   32 C    0 0 0
  34 C    1     2.4509     4.6315   62 C    0 1 0
  34 C    1     2.4509     4.6315    3 C   -1 0 0
  34 C    1     2.4509     4.6315    7 C    0 0 0

  35 C    1     1.4156     2.6750   25 C    0 0 0
  35 C    1     1.4158     2.6756   33 C    0 0 0
  35 C    1     1.4159     2.6757   47 C    0 0 0
  35 C    1     2.4506     4.6309   49 C    0 0 0
  35 C    1     2.4509     4.6316   45 C    0 1 0
  35 C    1     2.4510     4.6317   31 C    0 0 0

  36 C    1     1.4140     2.6721   39 C    0 0 0
  36 C    1     1.4160     2.6758   59 C    0 0 0
  36 C    1     1.4160     2.6759   37 C    1 0 0
  36 C    1     2.4481     4.6262   38 C    1 1 0
  36 C    1     2.4494     4.6287   22 C    0 0 0
  36 C    1     2.4510     4.6317   56 C    0 0 0

  37 C    1     1.4156     2.6751   74 C    0 0 0
  37 C    1     1.4159     2.6756   40 C    0 0 0
  37 C    1     1.4160     2.6759   36 C   -1 0 0
  37 C    1     2.4503     4.6303   41 C    0 1 0
  37 C    1     2.4510     4.6317   59 C   -1 0 0
  37 C    1     2.4514     4.6325   77 C    0 0 0

  38 C    1     1.4140     2.6721   41 C    0 0 0
  38 C    1     1.4146     2.6733   73 C    0 0 0
  38 C    1     1.4147     2.6734   39 C   -1-1 0
  38 C    1     2.4481     4.6262   36 C   -1-1 0
  38 C    1     2.4497     4.6293   22 C   -1-1 0
  38 C    1     2.4504     4.6306   76 C    0 0 0

  39 C    1     1.4133     2.6707   22 C    0 0 0
  39 C    1     1.4140     2.6721   36 C    0 0 0
  39 C    1     1.4147     2.6734   38 C    1 1 0
  39 C    1     2.4476     4.6253   19 C    0 0 0
  39 C    1     2.4488     4.6276   23 C    0 0 0
  39 C    1     2.4492     4.6283   73 C    1 1 0

  40 C    1     1.4144     2.6727   21 C    0 0 0
  40 C    1     1.4159     2.6756   37 C    0 0 0
  40 C    1     1.4163     2.6764   41 C    0 1 0
  40 C    1     2.4495     4.6289   18 C    0 0 0
  40 C    1     2.4502     4.6301   54 C    0 1 0
  40 C    1     2.4508     4.6313   20 C    0 0 0

  41 C    1     1.4140     2.6721   38 C    0 0 0
  41 C    1     1.4158     2.6754   54 C    0 0 0
  41 C    1     1.4163     2.6764   40 C    0-1 0
  41 C    1     2.4496     4.6291   73 C    0 0 0
  41 C    1     2.4503     4.6303   37 C    0-1 0
  41 C    1     2.4508     4.6313   39 C   -1-1 0

  42 C    1     1.4150     2.6740   62 C    0 0 0
  42 C    1     1.4151     2.6741   52 C    0 0 0
  42 C    1     1.4151     2.6741   48 C    0 0 0
  42 C    1     2.4509     4.6315   46 C    0 0 0
  42 C    1     2.4509     4.6315   68 C    0 0 0
  42 C    1     2.4509     4.6316   28 C    0 0 0

  43 C    1     1.4142     2.6725    8 C    0 0 0
  43 C    1     1.4158     2.6754   45 C    0 0 0
  43 C    1     1.4162     2.6763   53 C    1 0 0
  43 C    1     2.4496     4.6291    6 C    0 0 0
  43 C    1     2.4502     4.6301   29 C    1 0 0
  43 C    1     2.4508     4.6313   10 C    0 0 0

  44 C    1     1.4150     2.6739   60 C    0 0 0
  44 C    1     1.4151     2.6741   50 C   -1 0 0
  44 C    1     1.4151     2.6741    5 C   -1-1 0
  44 C    1     2.4508     4.6314    7 C   -1-1 0
  44 C    1     2.4508     4.6314   70 C    0 0 0
  44 C    1     2.4509     4.6315   11 C   -1-1 0

  45 C    1     1.4155     2.6750   69 C    0 0 0
  45 C    1     1.4158     2.6754   43 C    0 0 0
  45 C    1     1.4160     2.6758   47 C    0-1 0
  45 C    1     2.4502     4.6301   53 C    1 0 0
  45 C    1     2.4509     4.6316   35 C    0-1 0
  45 C    1     2.4515     4.6327   71 C    0 0 0

  46 C    1     1.4150     2.6740   52 C    0 0 0
  46 C    1     1.4150     2.6741    3 C    0 0 0
  46 C    1     1.4151     2.6741   66 C    1 0 0
  46 C    1     2.4509     4.6315   24 C    0 0 0
  46 C    1     2.4509     4.6315   42 C    0 0 0
  46 C    1     2.4509     4.6315   32 C    1 0 0

  47 C    1     1.4138     2.6716   49 C    0 0 0
  47 C    1     1.4159     2.6757   35 C    0 0 0
  47 C    1     1.4160     2.6758   45 C    0 1 0
  47 C    1     2.4481     4.6263   51 C    1 1 0
  47 C    1     2.4497     4.6292    2 C    0 0 0
  47 C    1     2.4509     4.6315   33 C    0 0 0

  48 C    1     1.4150     2.6740    9 C    0 0 0
  48 C    1     1.4151     2.6741   64 C    0 0 0
  48 C    1     1.4151     2.6741   42 C    0 0 0
  48 C    1     2.4509     4.6315    3 C    0 0 0
  48 C    1     2.4509     4.6315   11 C    0 0 0
  48 C    1     2.4509     4.6315   70 C    0 0 0

  49 C    1     1.4135     2.6712    2 C    0 0 0
  49 C    1     1.4138     2.6716   47 C    0 0 0
  49 C    1     1.4147     2.6734   51 C    1 1 0
  49 C    1     2.4475     4.6252    4 C    0 0 0
  49 C    1     2.4492     4.6283   12 C    0 0 0
  49 C    1     2.4496     4.6292   63 C    1 1 0

  50 C    1     1.4150     2.6740    7 C    0-1 0
  50 C    1     1.4151     2.6741   44 C    1 0 0
  50 C    1     1.4151     2.6742   52 C    0 0 0
  50 C    1     2.4508     4.6314   60 C    1 0 0
  50 C    1     2.4508     4.6314   28 C    0 0 0
  50 C    1     2.4509     4.6316    1 C    0-1 0

  51 C    1     1.4142     2.6725   53 C    0 0 0
  51 C    1     1.4146     2.6733   63 C    0 0 0
  51 C    1     1.4147     2.6734   49 C   -1-1 0
  51 C    1     2.4481     4.6263   47 C   -1-1 0
  51 C    1     2.4496     4.6290    2 C   -1-1 0
  51 C    1     2.4502     4.6302   65 C    0 0 0

  52 C    1     1.4150     2.6740   46 C    0 0 0
  52 C    1     1.4151     2.6741   42 C    0 0 0
  52 C    1     1.4151     2.6742   50 C    0 0 0
  52 C    1     2.4509     4.6315   62 C    0 0 0
  52 C    1     2.4509     4.6315   66 C    1 0 0
  52 C    1     2.4509     4.6316    3 C    0 0 0

  53 C    1     1.4142     2.6725   51 C    0 0 0
  53 C    1     1.4158     2.6754   29 C    0 0 0
  53 C    1     1.4162     2.6763   43 C   -1 0 0
  53 C    1     2.4496     4.6291   63 C    0 0 0
  53 C    1     2.4502     4.6301   45 C   -1 0 0
  53 C    1     2.4508     4.6314   49 C   -1-1 0

  54 C    1     1.4156     2.6751   57 C    0 0 0
  54 C    1     1.4158     2.6754   41 C    0 0 0
  54 C    1     1.4159     2.6757   55 C    0 0 0
  54 C    1     2.4502     4.6301   40 C    0-1 0
  54 C    1     2.4509     4.6315   58 C    0 0 0
  54 C    1     2.4516     4.6329   76 C    0 0 0

  55 C    1     1.4138     2.6716   20 C    0-1 0
  55 C    1     1.4159     2.6756   58 C    0 0 0
  55 C    1     1.4159     2.6757   54 C    0 0 0
  55 C    1     2.4483     4.6267   21 C    0-1 0
  55 C    1     2.4499     4.6297   23 C    0-1 0
  55 C    1     2.4508     4.6313   75 C    1 0 0

  56 C    1     1.4153     2.6745   19 C    0 0 0
  56 C    1     1.4159     2.6756   59 C    0 0 0
  56 C    1     1.4160     2.6758   57 C    0 0 0
  56 C    1     2.4496     4.6290   18 C    0 0 0
  56 C    1     2.4497     4.6293   22 C    0 0 0
  56 C    1     2.4510     4.6317   36 C    0 0 0

  57 C    1     1.4156     2.6751   54 C    0 0 0
  57 C    1     1.4160     2.6758   56 C    0 0 0
  57 C    1     1.4160     2.6759   76 C    0 0 0
  57 C    1     2.4509     4.6315   77 C    0 0 0
  57 C    1     2.4510     4.6317   59 C    0 0 0
  57 C    1     2.4512     4.6321   41 C    0 0 0

  58 C    1     1.4156     2.6752   59 C    0 0 0
  58 C    1     1.4158     2.6754   75 C    1 0 0
  58 C    1     1.4159     2.6756   55 C    0 0 0
  58 C    1     2.4505     4.6307   20 C    0-1 0
  58 C    1     2.4509     4.6315   74 C    1 0 0
  58 C    1     2.4509     4.6315   54 C    0 0 0

  59 C    1     1.4156     2.6752   58 C    0 0 0
  59 C    1     1.4159     2.6756   56 C    0 0 0
  59 C    1     1.4160     2.6758   36 C    0 0 0
  59 C    1     2.4508     4.6314   39 C    0 0 0
  59 C    1     2.4510     4.6317   57 C    0 0 0
  59 C    1     2.4510     4.6317   37 C    1 0 0

  60 C    1     1.4150     2.6739   44 C    0 0 0
  60 C    1     1.4151     2.6741   70 C    0 0 0
  60 C    1     1.4151     2.6742   66 C    0 0 0
  60 C    1     2.4508     4.6314   50 C   -1 0 0
  60 C    1     2.4509     4.6315   64 C    0 0 0
  60 C    1     2.4509     4.6315    5 C   -1-1 0

  61 C    1     1.4148     2.6736   63 C    0 0 0
  61 C    1     1.4160     2.6759   31 C    0 0 0
  61 C    1     1.4165     2.6767   71 C    0 0 0
  61 C    1     2.4505     4.6308   51 C    0 0 0
  61 C    1     2.4509     4.6315   69 C    0 0 0
  61 C    1     2.4514     4.6324   65 C    0 0 0

  62 C    1     1.4150     2.6740   42 C    0 0 0
  62 C    1     1.4151     2.6741   68 C    0 0 0
  62 C    1     1.4151     2.6742   28 C    0 0 0
  62 C    1     2.4509     4.6315   52 C    0 0 0
  62 C    1     2.4509     4.6315   30 C    0 0 0
  62 C    1     2.4509     4.6315   34 C    0-1 0

  63 C    1     1.4146     2.6733   51 C    0 0 0
  63 C    1     1.4148     2.6736   61 C    0 0 0
  63 C    1     1.4153     2.6745   65 C    0 0 0
  63 C    1     2.4496     4.6291   53 C    0 0 0
  63 C    1     2.4496     4.6292   49 C   -1-1 0
  63 C    1     2.4497     4.6293   67 C    0 0 0

  64 C    1     1.4150     2.6740   70 C    0 0 0
  64 C    1     1.4151     2.6741   48 C    0 0 0
  64 C    1     1.4151     2.6741   26 C    0 0 0
  64 C    1     2.4509     4.6315   60 C    0 0 0
  64 C    1     2.4509     4.6316    9 C    0 0 0
  64 C    1     2.4509     4.6316   68 C    0 0 0

  65 C    1     1.4130     2.6702   12 C   -1-1 0
  65 C    1     1.4152     2.6743   67 C    0 0 0
  65 C    1     1.4153     2.6745   63 C    0 0 0
  65 C    1     2.4475     4.6252   10 C   -1-1 0
  65 C    1     2.4477     4.6255    2 C   -1-1 0
  65 C    1     2.4502     4.6302   51 C    0 0 0

  66 C    1     1.4150     2.6740   32 C    0 0 0
  66 C    1     1.4151     2.6741   46 C   -1 0 0
  66 C    1     1.4151     2.6742   60 C    0 0 0
  66 C    1     2.4509     4.6315   52 C   -1 0 0
  66 C    1     2.4509     4.6315   26 C    0 0 0
  66 C    1     2.4509     4.6315   34 C    0 0 0

  67 C    1     1.4152     2.6743   65 C    0 0 0
  67 C    1     1.4159     2.6756   25 C    0-1 0
  67 C    1     1.4159     2.6756   69 C    0 0 0
  67 C    1     2.4497     4.6293   63 C    0 0 0
  67 C    1     2.4500     4.6299   12 C   -1-1 0
  67 C    1     2.4509     4.6316   27 C    0-1 0

  68 C    1     1.4150     2.6739   30 C    0 0 0
  68 C    1     1.4151     2.6741   62 C    0 0 0
  68 C    1     1.4151     2.6742   70 C    0 0 0
  68 C    1     2.4508     4.6314    5 C   -1-1 0
  68 C    1     2.4508     4.6314   24 C   -1-1 0
  68 C    1     2.4509     4.6315   42 C    0 0 0

  69 C    1     1.4155     2.6750   45 C    0 0 0
  69 C    1     1.4159     2.6756   67 C    0 0 0
  69 C    1     1.4160     2.6759   71 C    0 0 0
  69 C    1     2.4509     4.6315   61 C    0 0 0
  69 C    1     2.4509     4.6316   25 C    0-1 0
  69 C    1     2.4512     4.6321   43 C    0 0 0

  70 C    1     1.4150     2.6740   64 C    0 0 0
  70 C    1     1.4151     2.6741   60 C    0 0 0
  70 C    1     1.4151     2.6742   68 C    0 0 0
  70 C    1     2.4508     4.6314   44 C    0 0 0
  70 C    1     2.4509     4.6315   30 C    0 0 0
  70 C    1     2.4509     4.6315   48 C    0 0 0

  71 C    1     1.4148     2.6735    6 C    0 0 0
  71 C    1     1.4160     2.6759   69 C    0 0 0
  71 C    1     1.4165     2.6767   61 C    0 0 0
  71 C    1     2.4504     4.6306    8 C    0 0 0
  71 C    1     2.4509     4.6315   31 C    0 0 0
  71 C    1     2.4513     4.6323    4 C    0 0 0

  72 C    1     1.4132     2.6705   23 C   -1-1 0
  72 C    1     1.4151     2.6741   75 C    0 0 0
  72 C    1     1.4153     2.6745   73 C    0 0 0
  72 C    1     2.4472     4.6246   20 C   -1-1 0
  72 C    1     2.4480     4.6261   22 C   -1-1 0
  72 C    1     2.4506     4.6309   38 C    0 0 0

  73 C    1     1.4146     2.6733   38 C    0 0 0
  73 C    1     1.4149     2.6738   76 C    0 0 0
  73 C    1     1.4153     2.6745   72 C    0 0 0
  73 C    1     2.4492     4.6283   39 C   -1-1 0
  73 C    1     2.4496     4.6291   41 C    0 0 0
  73 C    1     2.4498     4.6294   75 C    0 0 0

  74 C    1     1.4156     2.6751   37 C    0 0 0
  74 C    1     1.4159     2.6756   75 C    0 0 0
  74 C    1     1.4159     2.6758   77 C    0 0 0
  74 C    1     2.4508     4.6313   76 C    0 0 0
  74 C    1     2.4509     4.6315   58 C   -1 0 0
  74 C    1     2.4514     4.6324   40 C    0 0 0

  75 C    1     1.4151     2.6741   72 C    0 0 0
  75 C    1     1.4158     2.6754   58 C   -1 0 0
  75 C    1     1.4159     2.6756   74 C    0 0 0
  75 C    1     2.4498     4.6294   73 C    0 0 0
  75 C    1     2.4503     4.6303   23 C   -1-1 0
  75 C    1     2.4508     4.6313   55 C   -1 0 0

  76 C    1     1.4149     2.6738   73 C    0 0 0
  76 C    1     1.4160     2.6759   57 C    0 0 0
  76 C    1     1.4165     2.6769   77 C    0 0 0
  76 C    1     2.4504     4.6306   38 C    0 0 0
  76 C    1     2.4508     4.6313   74 C    0 0 0
  76 C    1     2.4513     4.6322   72 C    0 0 0

  77 C    1     1.4146     2.6732   18 C    0 0 0
  77 C    1     1.4159     2.6758   74 C    0 0 0
  77 C    1     1.4165     2.6769   76 C    0 0 0
  77 C    1     2.4504     4.6307   21 C    0 0 0
  77 C    1     2.4509     4.6315   57 C    0 0 0
  77 C    1     2.4513     4.6322   19 C    0 0 0


 SYMMETRY ALLOWED ELASTIC DISTORTION 1
  0.7071068  0.0000000
  0.0000000  0.7071068

 SYMMETRY ALLOWED ELASTIC DISTORTION 2
  0.7071068  0.0000000
  0.0000000 -0.7071068

 SYMMETRY ALLOWED ELASTIC DISTORTION 3
  0.0000000  0.7071068
  0.7071068  0.0000000

 SYMMETRY ALLOWED INTERNAL DEGREE(S) OF FREEDOM: 228
 TTTTTTTTTTTTTTTTTTTTTTTTTTTTTT SYMM        TELAPSE        2.67 TCPU        1.83
 TTTTTTTTTTTTTTTTTTTTTTTTTTTTTT INT_SCREEN  TELAPSE        2.71 TCPU        1.86

 *******************************************************************************
 *                             OPTIMIZATION STARTS                             *
 *******************************************************************************
 RECLASIFICATION OF INDICES FOR INTEGRAL CALC ACCORDING TO DIFFERENT CRITERIA:
           FIXDELTE                  FIXDELTX              FIXDELTN
           1.0000000               0.80000000                231
 *******************************************************************************

 *******************************************************************************
 COORDINATE AND CELL OPTIMIZATION - POINT    1

 DFT PARAMETERS

     ATOM       ELECTRONS   NET CHARGE   R(ANGSTROM)
   1   6  C       6.0000      0.0000     0.77000000
  13   5  B       5.0000      0.0000     0.89000000
  14   9  F       9.0000      0.0000     0.72000000

 SIZE OF GRID=    2445761
 TTTTTTTTTTTTTTTTTTTTTTTTTTTTTT MAKE_GRID2  TELAPSE        4.61 TCPU        3.76
 BECKE WEIGHT FUNCTION
 RADSAFE =     2.00
 TOLERANCES - DENSITY:10**- 6; POTENTIAL:10**- 9; GRID WGT:10**-14

 RADIAL INTEGRATION  - INTERVALS (POINTS,UPPER LIMIT):            1( 75,  4.0*R)

 ANGULAR INTEGRATION - INTERVALS (ACCURACY LEVEL [N. POINTS] UPPER LIMIT):
  1(  4[  86]   0.2)  2(  8[ 194]   0.5)  3( 12[ 350]   0.9)  4( 16[ 974]   3.5)
  5( 12[ 350]9999.0)
 TTTTTTTTTTTTTTTTTTTTTTTTTTTTTT INT_CALC    TELAPSE        4.65 TCPU        3.79

 *******************************************************************************
 3LG_BF4_2x2_Sol                                                                 
 CRYSTAL - SCF - TYPE OF CALCULATION :  UNRESTRICTED OPEN SHELL
 *******************************************************************************

 CAPPA:IS1  6;IS2  6;IS3  1; K PTS MONK NET  20; SYMMOPS:K SPACE   2;G SPACE   1

 TTTTTTTTTTTTTTTTTTTTTTTTTTTTTT SDIK        TELAPSE        9.30 TCPU        8.44

 AAAAAAAAAAAAAAAAAAAAAAAAAAAAAAAAAAAAAAAAAAAAAAAAAAAAAAAAAAAAAAAAAAAAAAAAAAAAAAA
         ATOMIC WAVEFUNCTION(S)


 NUCLEAR CHARGE  6.0  SYMMETRY SPECIES            S    P
 N. ELECTRONS    6.0  NUMBER OF PRIMITIVE GTOS    8    4
                      NUMBER OF CONTRACTED GTOS   4    2
                      NUMBER OF CLOSED SHELLS     2    0
                      OPEN SHELL OCCUPATION       0    2

  ZNUC  SCFIT    TOTAL HF ENERGY   KINETIC ENERGY   VIRIAL THEOREM ACCURACY
   6.0     9    -3.766704647E+01  3.775180687E+01 -1.997754799E+00  1.1E-06

 NUCLEAR CHARGE  5.0  SYMMETRY SPECIES            S    P
 N. ELECTRONS    5.0  NUMBER OF PRIMITIVE GTOS    8    4
                      NUMBER OF CONTRACTED GTOS   4    2
                      NUMBER OF CLOSED SHELLS     2    0
                      OPEN SHELL OCCUPATION       0    1

  ZNUC  SCFIT    TOTAL HF ENERGY   KINETIC ENERGY   VIRIAL THEOREM ACCURACY
   5.0    11    -2.451164084E+01  2.462155031E+01 -1.995536046E+00  1.5E-06

 NUCLEAR CHARGE  9.0  SYMMETRY SPECIES            S    P
 N. ELECTRONS    9.0  NUMBER OF PRIMITIVE GTOS    8    4
                      NUMBER OF CONTRACTED GTOS   4    2
                      NUMBER OF CLOSED SHELLS     2    0
                      OPEN SHELL OCCUPATION       0    5

  ZNUC  SCFIT    TOTAL HF ENERGY   KINETIC ENERGY   VIRIAL THEOREM ACCURACY
   9.0    13    -9.934725818E+01  9.937144158E+01 -1.999756636E+00  4.4E-06

 AAAAAAAAAAAAAAAAAAAAAAAAAAAAAAAAAAAAAAAAAAAAAAAAAAAAAAAAAAAAAAAAAAAAAAAAAAAAAAA

 CHARGE NORMALIZATION FACTOR   1.00000000
 TOTAL ATOMIC CHARGES:
   6.0000000   6.0000000   6.0000000   6.0000000   6.0000000   6.0000000
   6.0000000   6.0000000   6.0000000   6.0000000   6.0000000   6.0000000
   5.0000000   9.0000000   9.0000000   9.0000000   9.0000000   6.0000000
   6.0000000   6.0000000   6.0000000   6.0000000   6.0000000   6.0000000
   6.0000000   6.0000000   6.0000000   6.0000000   6.0000000   6.0000000
   6.0000000   6.0000000   6.0000000   6.0000000   6.0000000   6.0000000
   6.0000000   6.0000000   6.0000000   6.0000000   6.0000000   6.0000000
   6.0000000   6.0000000   6.0000000   6.0000000   6.0000000   6.0000000
   6.0000000   6.0000000   6.0000000   6.0000000   6.0000000   6.0000000
   6.0000000   6.0000000   6.0000000   6.0000000   6.0000000   6.0000000
   6.0000000   6.0000000   6.0000000   6.0000000   6.0000000   6.0000000
   6.0000000   6.0000000   6.0000000   6.0000000   6.0000000   6.0000000
   6.0000000   6.0000000   6.0000000   6.0000000   6.0000000
 SUMMED SPIN DENSITY           0.00000000
 TOTAL ATOMIC SPINS  :
   0.0000000   0.0000000   0.0000000   0.0000000   0.0000000   0.0000000
   0.0000000   0.0000000   0.0000000   0.0000000   0.0000000   0.0000000
   0.0000000   0.0000000   0.0000000   0.0000000   0.0000000   0.0000000
   0.0000000   0.0000000   0.0000000   0.0000000   0.0000000   0.0000000
   0.0000000   0.0000000   0.0000000   0.0000000   0.0000000   0.0000000
   0.0000000   0.0000000   0.0000000   0.0000000   0.0000000   0.0000000
   0.0000000   0.0000000   0.0000000   0.0000000   0.0000000   0.0000000
   0.0000000   0.0000000   0.0000000   0.0000000   0.0000000   0.0000000
   0.0000000   0.0000000   0.0000000   0.0000000   0.0000000   0.0000000
   0.0000000   0.0000000   0.0000000   0.0000000   0.0000000   0.0000000
   0.0000000   0.0000000   0.0000000   0.0000000   0.0000000   0.0000000
   0.0000000   0.0000000   0.0000000   0.0000000   0.0000000   0.0000000
   0.0000000   0.0000000   0.0000000   0.0000000   0.0000000
 TTTTTTTTTTTTTTTTTTTTTTTTTTTTTT MOQGAD      TELAPSE        9.38 TCPU        8.51
 TTTTTTTTTTTTTTTTTTTTTTTTTTTTTT SHELLXN     TELAPSE      369.67 TCPU      367.77
 TTTTTTTTTTTTTTTTTTTTTTTTTTTTTT MONMO3      TELAPSE      370.35 TCPU      368.44
 NUMERICALLY INTEGRATED DENSITY    236.4999556431    236.4999556431
 TTTTTTTTTTTTTTTTTTTTTTTTTTTTTT NUMDFT      TELAPSE      374.89 TCPU      372.97
 CYC   0 ETOT(AU) -3.181061821830E+03 DETOT -3.18E+03 tst  0.00E+00 PX  1.00E+00
 TTTTTTTTTTTTTTTTTTTTTTTTTTTTTT DIIS        TELAPSE      375.02 TCPU      373.10
 TTTTTTTTTTTTTTTTTTTTTTTTTTTTTT FDIK        TELAPSE      422.17 TCPU      420.14
 POSSIBLY CONDUCTING STATE - EFERMI(AU) -2.2496898E-01 (RES. CHARGE  5.02E-11;IT. 18)
 TTTTTTTTTTTTTTTTTTTTTTTTTTTTTT PDIG        TELAPSE      423.39 TCPU      421.36
 CHARGE NORMALIZATION FACTOR   1.00000000
 TOTAL ATOMIC CHARGES:
   5.9805098   5.9888661   5.9904258   5.9887083   5.9803477   5.9900117
   5.9905082   5.9909110   5.9803686   5.9900904   5.9905903   5.9886288
   4.1617163   9.4413545   9.4403690   9.4403674   9.4414947   5.9933989
   5.9807520   5.9945880   5.9846524   5.9933698   5.9817828   5.9804601
   5.9898960   5.9904890   5.9871348   5.9805780   5.9874299   5.9905590
   5.9887513   5.9805012   5.9881744   5.9904624   5.9899117   5.9898581
   5.9812910   5.9939034   5.9808357   5.9918835   5.9831141   5.9807441
   5.9897064   5.9902691   5.9874993   5.9805252   5.9872928   5.9904227
   5.9896629   5.9804515   5.9909622   5.9905205   5.9895644   5.9892637
   5.9808076   5.9904286   5.9828531   5.9912485   5.9842160   5.9805895
   5.9877724   5.9904552   5.9900207   5.9806371   5.9889165   5.9905727
   5.9881055   5.9804369   5.9886244   5.9905825   5.9877626   5.9938588
   5.9830006   5.9905388   5.9813198   5.9898754   5.9814456
 SUMMED SPIN DENSITY           0.00000000
 TOTAL ATOMIC SPINS  :
  -0.0000000   0.0000000  -0.0000000   0.0000000   0.0000000   0.0000000
   0.0000000   0.0000000   0.0000000  -0.0000000   0.0000000  -0.0000000
   0.0000000   0.0000000   0.0000000   0.0000000  -0.0000000  -0.0000000
  -0.0000000   0.0000000   0.0000000  -0.0000000   0.0000000  -0.0000000
  -0.0000000  -0.0000000   0.0000000  -0.0000000  -0.0000000  -0.0000000
   0.0000000   0.0000000   0.0000000  -0.0000000   0.0000000   0.0000000
  -0.0000000  -0.0000000  -0.0000000  -0.0000000   0.0000000   0.0000000
  -0.0000000  -0.0000000  -0.0000000  -0.0000000   0.0000000   0.0000000
  -0.0000000  -0.0000000  -0.0000000  -0.0000000   0.0000000  -0.0000000
   0.0000000   0.0000000  -0.0000000   0.0000000   0.0000000   0.0000000
   0.0000000  -0.0000000   0.0000000   0.0000000   0.0000000   0.0000000
   0.0000000  -0.0000000   0.0000000  -0.0000000  -0.0000000  -0.0000000
   0.0000000  -0.0000000  -0.0000000   0.0000000  -0.0000000
 TTTTTTTTTTTTTTTTTTTTTTTTTTTTTT MOQGAD      TELAPSE      423.42 TCPU      421.38
 TTTTTTTTTTTTTTTTTTTTTTTTTTTTTT SHELLXN     TELAPSE      798.13 TCPU      795.08
 TTTTTTTTTTTTTTTTTTTTTTTTTTTTTT MONMO3      TELAPSE      798.81 TCPU      795.76
 NUMERICALLY INTEGRATED DENSITY    236.4999217391    236.4999217391
 TTTTTTTTTTTTTTTTTTTTTTTTTTTTTT NUMDFT      TELAPSE      803.44 TCPU      800.38
 CYC   1 ETOT(AU) -3.156207571007E+03 DETOT  2.49E+01 tst  0.00E+00 PX  1.00E+00
 TTTTTTTTTTTTTTTTTTTTTTTTTTTTTT DIIS        TELAPSE      804.11 TCPU      801.05
 DIIS TEST: 0.13822E+01 AT SCF   CYCLE   1 - MIX   30 %
 TTTTTTTTTTTTTTTTTTTTTTTTTTTTTT FDIK        TELAPSE      815.76 TCPU      812.67
 POSSIBLY CONDUCTING STATE - EFERMI(AU) -1.4141241E-01 (RES. CHARGE  5.12E-13;IT. 12)
 TTTTTTTTTTTTTTTTTTTTTTTTTTTTTT PDIG        TELAPSE      816.98 TCPU      813.89
 CHARGE NORMALIZATION FACTOR   1.00000000
 TOTAL ATOMIC CHARGES:
   6.1475924   5.7383127   6.1670008   5.7898204   6.1472184   5.7957861
   6.1659085   5.7970940   6.1475814   5.7632523   6.1655716   5.7407584
   4.6209462   9.3040654   9.2554415   9.2550867   9.3039915   5.9461299
   6.0168226   5.9206762   6.0243439   5.9137718   6.0130060   6.1455385
   5.8420133   6.1664945   5.8388601   6.1470165   5.8400757   6.1672392
   5.8507330   6.1453635   5.8383171   6.1674304   5.8411365   5.9894077
   6.0353921   5.9520354   6.0023229   5.9828925   6.0392836   6.1464453
   5.8345651   6.1661191   5.8400915   6.1478032   5.8382975   6.1673353
   5.7640573   6.1470252   5.7961459   6.1656053   5.8351255   5.9854173
   6.0495842   5.9882963   6.0410092   5.9860824   6.0364189   6.1457117
   5.8449285   6.1669741   5.7968253   6.1461798   5.7890783   6.1684258
   5.8386285   6.1460868   5.8506809   6.1687899   5.8447683   5.9395381
   6.0148506   5.9911465   6.0445336   5.9900475   6.0456502
 SUMMED SPIN DENSITY           0.00000000
 TOTAL ATOMIC SPINS  :
   0.0000000   0.0000000  -0.0000000   0.0000000   0.0000000  -0.0000000
  -0.0000000   0.0000000   0.0000000   0.0000000  -0.0000000  -0.0000000
   0.0000000  -0.0000000   0.0000000  -0.0000000  -0.0000000  -0.0000000
  -0.0000000   0.0000000  -0.0000000   0.0000000  -0.0000000   0.0000000
  -0.0000000  -0.0000000   0.0000000   0.0000000  -0.0000000  -0.0000000
   0.0000000   0.0000000   0.0000000  -0.0000000  -0.0000000   0.0000000
  -0.0000000   0.0000000  -0.0000000  -0.0000000   0.0000000   0.0000000
  -0.0000000  -0.0000000  -0.0000000   0.0000000   0.0000000  -0.0000000
  -0.0000000   0.0000000  -0.0000000  -0.0000000   0.0000000   0.0000000
  -0.0000000   0.0000000  -0.0000000  -0.0000000   0.0000000   0.0000000
   0.0000000  -0.0000000   0.0000000   0.0000000   0.0000000  -0.0000000
   0.0000000   0.0000000   0.0000000  -0.0000000   0.0000000   0.0000000
   0.0000000  -0.0000000  -0.0000000   0.0000000   0.0000000
 TTTTTTTTTTTTTTTTTTTTTTTTTTTTTT MOQGAD      TELAPSE      817.01 TCPU      813.92
 TTTTTTTTTTTTTTTTTTTTTTTTTTTTTT SHELLXN     TELAPSE     1189.68 TCPU     1185.38
 TTTTTTTTTTTTTTTTTTTTTTTTTTTTTT MONMO3      TELAPSE     1190.37 TCPU     1186.07
 NUMERICALLY INTEGRATED DENSITY    236.4999148349    236.4999148349
 TTTTTTTTTTTTTTTTTTTTTTTTTTTTTT NUMDFT      TELAPSE     1195.05 TCPU     1190.74
 CYC   2 ETOT(AU) -3.147657983959E+03 DETOT  8.55E+00 tst  2.07E-03 PX  1.22E-01
 TTTTTTTTTTTTTTTTTTTTTTTTTTTTTT DIIS        TELAPSE     1195.75 TCPU     1191.44
 DIIS TEST: 0.30924E+02 AT SCF   CYCLE   2 - DIIS ACTIVE - HISTORY:     2 CYCLES
 TTTTTTTTTTTTTTTTTTTTTTTTTTTTTT FDIK        TELAPSE     1205.93 TCPU     1201.59
 POSSIBLY CONDUCTING STATE - EFERMI(AU) -1.0682561E-01 (RES. CHARGE  9.39E-08;IT. 41)
 TTTTTTTTTTTTTTTTTTTTTTTTTTTTTT PDIG        TELAPSE     1207.15 TCPU     1202.81
 CHARGE NORMALIZATION FACTOR   1.00000000
 TOTAL ATOMIC CHARGES:
   5.8988353   6.0814844   5.8999040   6.1151516   5.8982920   6.1208477
   5.8996462   6.1236670   5.9002519   6.0913862   5.8962013   6.0865006
   4.7776697   9.2250163   9.2723736   9.2723488   9.2249754   5.9032272
   5.9134358   5.8712101   5.9159396   5.8434770   5.8801177   5.8984654
   6.1588849   5.8996412   6.1634928   5.9005780   6.1593031   5.8982012
   6.1675611   5.9006522   6.1623401   5.9009354   6.1602006   5.9415181
[...]
                 12 C    ( -1 -1  0)     2.671     1.413    -0.000
                 67 C    (  0  0  0)     2.675     1.415     0.000
                 63 C    (  0  0  0)     2.675     1.415    -0.000
                 10 C    ( -1 -1  0)     4.626     2.448    -0.000
                  2 C    ( -1 -1  0)     4.626     2.448     0.000
                 51 C    (  0  0  0)     4.631     2.450     0.000

 ATOM A  66 C    ATOM B     CELL      R(AB)/AU R(AB)/ANG    OVPOP(AB)
                 32 C    (  0  0  0)     2.674     1.415    -0.000
                 46 C    ( -1  0  0)     2.674     1.415    -0.000
                 60 C    (  0  0  0)     2.674     1.415    -0.000
                 52 C    ( -1  0  0)     4.632     2.451     0.000
                 26 C    (  0  0  0)     4.632     2.451     0.000
                 34 C    (  0  0  0)     4.632     2.451    -0.000

 ATOM A  67 C    ATOM B     CELL      R(AB)/AU R(AB)/ANG    OVPOP(AB)
                 65 C    (  0  0  0)     2.675     1.415     0.000
                 25 C    (  0 -1  0)     2.676     1.416    -0.000
                 69 C    (  0  0  0)     2.676     1.416    -0.000
                 63 C    (  0  0  0)     4.630     2.450     0.000
                 12 C    ( -1 -1  0)     4.630     2.450     0.000
                 27 C    (  0 -1  0)     4.632     2.451    -0.000

 ATOM A  68 C    ATOM B     CELL      R(AB)/AU R(AB)/ANG    OVPOP(AB)
                 30 C    (  0  0  0)     2.674     1.415    -0.000
                 62 C    (  0  0  0)     2.674     1.415    -0.000
                 70 C    (  0  0  0)     2.674     1.415     0.000
                  5 C    ( -1 -1  0)     4.632     2.451    -0.000
                 24 C    ( -1 -1  0)     4.632     2.451     0.000
                 42 C    (  0  0  0)     4.632     2.451    -0.000

 ATOM A  69 C    ATOM B     CELL      R(AB)/AU R(AB)/ANG    OVPOP(AB)
                 45 C    (  0  0  0)     2.675     1.416    -0.000
                 67 C    (  0  0  0)     2.676     1.416    -0.000
                 71 C    (  0  0  0)     2.676     1.416    -0.000
                 61 C    (  0  0  0)     4.632     2.451    -0.000
                 25 C    (  0 -1  0)     4.632     2.451     0.000
                 43 C    (  0  0  0)     4.632     2.451    -0.000

 ATOM A  70 C    ATOM B     CELL      R(AB)/AU R(AB)/ANG    OVPOP(AB)
                 64 C    (  0  0  0)     2.674     1.415    -0.000
                 60 C    (  0  0  0)     2.674     1.415     0.000
                 68 C    (  0  0  0)     2.674     1.415     0.000
                 44 C    (  0  0  0)     4.632     2.451    -0.000
                 30 C    (  0  0  0)     4.632     2.451    -0.000
                 48 C    (  0  0  0)     4.632     2.451    -0.000

 ATOM A  71 C    ATOM B     CELL      R(AB)/AU R(AB)/ANG    OVPOP(AB)
                  6 C    (  0  0  0)     2.674     1.415     0.000
                 69 C    (  0  0  0)     2.676     1.416    -0.000
                 61 C    (  0  0  0)     2.677     1.417    -0.000
                  8 C    (  0  0  0)     4.631     2.451     0.000
                 31 C    (  0  0  0)     4.632     2.451    -0.000
                  4 C    (  0  0  0)     4.633     2.451     0.000

 ATOM A  72 C    ATOM B     CELL      R(AB)/AU R(AB)/ANG    OVPOP(AB)
                 23 C    ( -1 -1  0)     2.671     1.413     0.000
                 75 C    (  0  0  0)     2.674     1.415    -0.000
                 73 C    (  0  0  0)     2.675     1.415     0.000
                 20 C    ( -1 -1  0)     4.625     2.448     0.000
                 22 C    ( -1 -1  0)     4.626     2.448    -0.000
                 38 C    (  0  0  0)     4.631     2.451    -0.000

 ATOM A  73 C    ATOM B     CELL      R(AB)/AU R(AB)/ANG    OVPOP(AB)
                 38 C    (  0  0  0)     2.673     1.415     0.000
                 76 C    (  0  0  0)     2.674     1.415    -0.000
                 72 C    (  0  0  0)     2.675     1.415     0.000
                 39 C    ( -1 -1  0)     4.629     2.450    -0.000
                 41 C    (  0  0  0)     4.629     2.450    -0.000
                 75 C    (  0  0  0)     4.630     2.450     0.000

 ATOM A  74 C    ATOM B     CELL      R(AB)/AU R(AB)/ANG    OVPOP(AB)
                 37 C    (  0  0  0)     2.675     1.416    -0.000
                 75 C    (  0  0  0)     2.676     1.416     0.000
                 77 C    (  0  0  0)     2.676     1.416    -0.000
                 76 C    (  0  0  0)     4.632     2.451     0.000
                 58 C    ( -1  0  0)     4.632     2.451     0.000
                 40 C    (  0  0  0)     4.633     2.451    -0.000

 ATOM A  75 C    ATOM B     CELL      R(AB)/AU R(AB)/ANG    OVPOP(AB)
                 72 C    (  0  0  0)     2.674     1.415    -0.000
                 58 C    ( -1  0  0)     2.676     1.416    -0.000
                 74 C    (  0  0  0)     2.676     1.416     0.000
                 73 C    (  0  0  0)     4.630     2.450     0.000
                 23 C    ( -1 -1  0)     4.631     2.450     0.000
                 55 C    ( -1  0  0)     4.632     2.451     0.000

 ATOM A  76 C    ATOM B     CELL      R(AB)/AU R(AB)/ANG    OVPOP(AB)
                 73 C    (  0  0  0)     2.674     1.415    -0.000
                 57 C    (  0  0  0)     2.676     1.416     0.000
                 77 C    (  0  0  0)     2.677     1.417    -0.000
                 38 C    (  0  0  0)     4.631     2.451    -0.000
                 74 C    (  0  0  0)     4.632     2.451     0.000
                 72 C    (  0  0  0)     4.633     2.451     0.000

 ATOM A  77 C    ATOM B     CELL      R(AB)/AU R(AB)/ANG    OVPOP(AB)
                 18 C    (  0  0  0)     2.673     1.415    -0.000
                 74 C    (  0  0  0)     2.676     1.416    -0.000
                 76 C    (  0  0  0)     2.677     1.417    -0.000
                 21 C    (  0  0  0)     4.631     2.451     0.000
                 57 C    (  0  0  0)     4.632     2.451     0.000
                 19 C    (  0  0  0)     4.633     2.451     0.000
 EIGENVECTORS IN FORTRAN UNIT  8

 FINAL OPTIMIZED GEOMETRY - DIMENSIONALITY OF THE SYSTEM      2
 (NON PERIODIC DIRECTION: LATTICE PARAMETER FORMALLY SET TO 500)
 *******************************************************************************
 LATTICE PARAMETERS (ANGSTROMS AND DEGREES) - BOHR = 0.5291772083 ANGSTROM
 PRIMITIVE CELL
         A              B              C           ALPHA      BETA       GAMMA 
     8.49112132     8.49124311   500.00000000    90.000000  90.000000 120.004602
 *******************************************************************************
 ATOMS IN THE ASYMMETRIC UNIT   77 - ATOMS IN THE UNIT CELL:   77
     ATOM                 X/A                 Y/B             Z(ANGSTROM)
 *******************************************************************************
      1 T   6 C     4.470525431592E-02  3.033433186016E-01  8.591713658364E+00
      2 T   6 C     2.942602411584E-01  3.863880936284E-01  1.869723176516E+01
      3 T   6 C     3.780308492800E-01  1.366800233264E-01  8.590647403158E+00
      4 T   6 C     1.278439488868E-01  2.199352608647E-01  1.868674065358E+01
      5 T   6 C     3.780340196583E-01  4.700101105851E-01  8.593325623664E+00
      6 T   6 C     1.276814515188E-01  5.316699488149E-02  1.867808494088E+01
      7 T   6 C     4.470298671215E-02  4.700102842457E-01  8.589775890528E+00
      8 T   6 C     2.942869618091E-01  5.315986862122E-02  1.868418365506E+01
      9 T   6 C     2.113662496063E-01  1.366809736463E-01  8.592147793916E+00
     10 T   6 C     4.608429023396E-01  2.198754437764E-01  1.869075993059E+01
     11 T   6 C     2.113669672366E-01  3.033431524673E-01  8.591733358805E+00
     12 T   6 C     4.607462704474E-01  3.863108142409E-01  1.869715052029E+01
     13 T   5 B     3.770589694110E-01  3.860533125193E-01  1.531247581313E+01
     14 T   9 F     2.256869034584E-01  3.433377801894E-01  1.451175566004E+01
     15 T   9 F     3.377526080289E-01  2.355960054086E-01  1.611022339292E+01
     16 T   9 F     4.164073313503E-01 -4.634542547698E-01  1.610991065697E+01
     17 T   9 F    -4.716167915744E-01  4.287240961070E-01  1.451135253918E+01
     18 T   6 C     4.411870312203E-02  1.362067456550E-01  1.196681766918E+01
     19 T   6 C     2.108932265556E-01  1.363984429326E-01  1.195479446171E+01
     20 T   6 C     2.108524789054E-01  4.693976010140E-01  1.195449475411E+01
     21 T   6 C     4.414312277584E-02  3.028278886603E-01  1.195785357999E+01
     22 T   6 C     3.773498454350E-01  3.027829576466E-01  1.194765128341E+01
     23 T   6 C     3.772734649003E-01  4.692730892529E-01  1.194317619110E+01
     24 T   6 C    -4.552990238442E-01  3.033481141307E-01  8.592330095290E+00
     25 T   6 C    -2.058547839687E-01  3.863414782871E-01  1.868612467357E+01
     26 T   6 C    -1.219682017672E-01  1.366749649580E-01  8.589753449631E+00
     27 T   6 C    -3.727340298359E-01  2.196738670962E-01  1.869054378670E+01
     28 T   6 C    -1.219619786323E-01  4.700099445820E-01  8.590570463421E+00
     29 T   6 C    -3.725449162102E-01  5.300542463066E-02  1.868290642966E+01
     30 T   6 C    -4.553012105157E-01  4.700104488498E-01  8.591791546682E+00
     31 T   6 C    -2.058212868816E-01  5.302119041481E-02  1.867948502860E+01
     32 T   6 C    -2.886322482378E-01  1.366798868706E-01  8.590265039222E+00
     33 T   6 C    -3.895490314427E-02  2.196934396916E-01  1.868505225811E+01
     34 T   6 C    -2.886325795161E-01  3.033454487515E-01  8.589911803491E+00
     35 T   6 C    -3.913526204949E-02  3.863591706214E-01  1.868620452042E+01
     36 T   6 C    -4.560060459436E-01  1.362944028388E-01  1.195486155762E+01
     37 T   6 C    -2.893369585131E-01  1.360938538270E-01  1.196045734889E+01
     38 T   6 C    -2.894831199561E-01  4.692604795982E-01  1.196079147209E+01
     39 T   6 C    -4.562125514908E-01  3.027278909671E-01  1.195048260971E+01
     40 T   6 C    -1.224612262626E-01  3.027505422138E-01  1.195950015745E+01
     41 T   6 C    -1.228981455251E-01  4.693460105973E-01  1.195708291234E+01
     42 T   6 C     4.469781445683E-02 -1.966556105793E-01  8.590242622396E+00
     43 T   6 C     2.942067654710E-01 -1.134379846159E-01  1.868575105589E+01
     44 T   6 C     3.780309665129E-01 -3.633269712332E-01  8.590444557289E+00
     45 T   6 C     1.275540732635E-01 -2.803053208886E-01  1.868296833341E+01
     46 T   6 C     3.780324442578E-01 -2.998028809351E-02  8.590265951637E+00
     47 T   6 C     1.277434660781E-01 -4.469731377684E-01  1.869064120133E+01
     48 T   6 C     4.469841341953E-02 -2.998804876945E-02  8.589965489229E+00
     49 T   6 C     2.941662101742E-01 -4.471752979506E-01  1.869093037654E+01
     50 T   6 C     2.113704068781E-01 -3.633199901601E-01  8.590457338931E+00
     51 T   6 C     4.607203951158E-01 -2.804597667137E-01  1.868418378931E+01
     52 T   6 C     2.113664356230E-01 -1.966540079841E-01  8.588995897906E+00
     53 T   6 C     4.608017002174E-01 -1.138605846450E-01  1.868575377620E+01
     54 T   6 C     4.397120729441E-02 -3.640065684577E-01  1.196249350820E+01
     55 T   6 C     2.106410409672E-01 -3.641899184585E-01  1.195252057805E+01
     56 T   6 C     2.106514044635E-01 -3.040774138448E-02  1.196018697584E+01
     57 T   6 C     4.397836122330E-02 -1.972808590215E-01  1.196376286889E+01
     58 T   6 C     3.773082856157E-01 -1.973129193150E-01  1.195950009420E+01
     59 T   6 C     3.773153618986E-01 -3.059136688310E-02  1.195746596408E+01
     60 T   6 C    -4.553056833173E-01 -1.966582021543E-01  8.590622338516E+00
     61 T   6 C    -2.060127078780E-01 -1.138523696070E-01  1.867811182690E+01
     62 T   6 C    -1.219691071837E-01 -3.633264640984E-01  8.589761047721E+00
     63 T   6 C    -3.726732676211E-01 -2.804668333706E-01  1.867805402134E+01
     64 T   6 C    -1.219722346832E-01 -2.999339400435E-02  8.590738888859E+00
     65 T   6 C    -3.728355519875E-01 -4.472357260680E-01  1.868656344306E+01
     66 T   6 C    -4.553024900972E-01 -2.998822592464E-02  8.589089310773E+00
     67 T   6 C    -2.060353095160E-01 -4.469929645468E-01  1.868494530794E+01
     68 T   6 C    -2.886391874326E-01 -3.633293486547E-01  8.591814955981E+00
     69 T   6 C    -3.916919652921E-02 -2.803206740315E-01  1.867944018399E+01
     70 T   6 C    -2.886384268967E-01 -1.966606044725E-01  8.589996664508E+00
     71 T   6 C    -3.897706319301E-02 -1.134465484283E-01  1.867814503624E+01
     72 T   6 C    -4.562831622166E-01 -3.642907801445E-01  1.195843515945E+01
     73 T   6 C    -2.895240157709E-01 -3.641492795544E-01  1.196369466631E+01
     74 T   6 C    -2.893581508721E-01 -3.063615472429E-02  1.196567059120E+01
     75 T   6 C    -4.560319230576E-01 -1.974945786195E-01  1.195775334423E+01
     76 T   6 C    -1.229003773585E-01 -1.974811292395E-01  1.196662298408E+01
     77 T   6 C    -1.224863903595E-01 -3.043490186069E-02  1.196429350079E+01

 T = ATOM BELONGING TO THE ASYMMETRIC UNIT
 INFORMATION **** fort.34 **** GEOMETRY OUTPUT FILE

 DIRECT LATTICE VECTORS CARTESIAN COMPONENTS (ANGSTROM)
          X                    Y                    Z
   0.735319571168E+01  -0.424613401368E+01   0.000000000000E+00
  -0.199854427501E-04   0.849124311404E+01   0.000000000000E+00
   0.000000000000E+00   0.000000000000E+00   0.500000000000E+03


 CARTESIAN COORDINATES - PRIMITIVE CELL
 *******************************************************************************
 *      ATOM          X(ANGSTROM)         Y(ANGSTROM)         Z(ANGSTROM)
 *******************************************************************************
    1     6 C     3.287204218749E-01  2.385937364325E+00  8.591713658364E+00
    2     6 C     2.163745421267E+00  2.031446820515E+00  1.869723176516E+01
    3     6 C     2.779732088198E+00 -4.445863404488E-01  8.590647403158E+00
    4     6 C     9.400571812150E-01  1.324681229542E+00  1.868674065358E+01
    5     6 C     2.779748738861E+00  2.385787005838E+00  8.593325623664E+00
    6     6 C     9.388656392033E-01 -9.069867502761E-02  1.867808494088E+01
    7     6 C     3.287004168275E-01  3.801156717239E+00  8.589775890528E+00
    8     6 C     2.163948563155E+00 -7.981885099453E-01  1.868418365506E+01
    9     6 C     1.554214668569E+00  2.631019544985E-01  8.592147793916E+00
   10     6 C     3.388663658934E+00 -8.978487467201E-02  1.869075993059E+01
   11     6 C     1.554216614628E+00  1.678267985629E+00  8.591733358805E+00
   12     6 C     3.387949779434E+00  1.323868630682E+00  1.869715052029E+01
   13     5 B     2.772580681477E+00  1.677029616405E+00  1.531247581313E+01
   14     9 F     1.659513108936E+00  1.957067724608E+00  1.451175566004E+01
   15     9 F     2.483556320477E+00  5.663601214619E-01  1.611022339292E+01
   16     9 F     3.061913880094E+00  2.787819031364E+00  1.610991065697E+01
   17     9 F     3.885296574078E+00  1.396814615342E+00  1.451135253918E+01
   18     6 C     3.244107364497E-01  9.692306651631E-01  1.196681766918E+01
   19     6 C     1.550736443148E+00  2.627114367864E-01  1.195479446171E+01
   20     6 C     1.550430162565E+00  3.090461264810E+00  1.195449475411E+01
   21     6 C     3.245869689461E-01  2.383947609238E+00  1.195785357999E+01
   22     6 C     2.774721214005E+00  9.687256904092E-01  1.194765128341E+01
   23     6 C     2.774156245605E+00  2.382758195954E+00  1.194317619110E+01
   24     6 C     4.005286819471E+00  2.629292431326E-01  8.592330095290E+00
   25     6 C    -1.513698235913E+00  4.154606417261E+00  1.868612467357E+01
   26     6 C    -8.968587897059E-01  1.678433685172E+00  8.589753449631E+00
   27     6 C    -2.740790660066E+00  3.447982853456E+00  1.869054378670E+01
   28     6 C    -8.967997061812E-01 -3.982407502733E+00  8.590570463421E+00
   29     6 C    -2.739396739622E+00  2.031957587244E+00  1.868290642966E+01
   30     6 C    -3.347908316612E+00 -2.567000170280E+00  8.591791546682E+00
   31     6 C    -1.513445263723E+00  1.324160584975E+00  1.867948502860E+01
   32     6 C    -2.122372141603E+00  2.386153354904E+00  8.590265039222E+00
   33     6 C    -2.864474174201E-01  2.030878146222E+00  1.868505225811E+01
   34     6 C    -2.122377908442E+00  3.801352566225E+00  8.589911803491E+00
   35     6 C    -2.877769626369E-01  3.446843214408E+00  1.868620452042E+01
   36     6 C     4.000091286244E+00 -1.152562321965E+00  1.195486155762E+01
   37     6 C    -2.127554002465E+00  2.384169500127E+00  1.196045734889E+01
   38     6 C    -2.128615429201E+00 -3.277454175931E+00  1.196079147209E+01
   39     6 C     3.998569484293E+00  2.615417382782E-01  1.195048260971E+01
   40     6 C    -9.004874144052E-01  3.090715235035E+00  1.195950015745E+01
   41     6 C    -9.036835112940E-01 -3.984070037522E+00  1.195708291234E+01
   42     6 C     3.286757078350E-01 -1.859643509471E+00  8.590242622396E+00
   43     6 C     2.163362193317E+00 -2.212470859660E+00  1.868575105589E+01
   44     6 C    -4.573452768586E+00 -4.441337740870E-01  8.590444557289E+00
   45     6 C     9.379356665543E-01 -2.921752314891E+00  1.868296833341E+01
   46     6 C     2.779747147162E+00 -1.859746334667E+00  8.590265951637E+00
   47     6 C     9.393116544741E-01  4.153469659465E+00  1.869064120133E+01
   48     6 C     3.286767811999E-01 -4.444312661951E-01  8.589965489229E+00
   49     6 C     2.163050666728E+00  3.445099793854E+00  1.869093037654E+01
   50     6 C     1.554255230544E+00 -3.982545438770E+00  8.590457338931E+00
   51     6 C    -3.965422872919E+00 -9.159858969307E-02  1.868418378931E+01
   52     6 C     1.554222698234E+00 -2.567327202792E+00  8.588995897906E+00
   53     6 C    -3.964828350153E+00  1.322690335495E+00  1.868575377620E+01
   54     6 C     3.233361677472E-01 -3.277575906797E+00  1.196249350820E+01
   55     6 C     1.548892077641E+00 -3.986835226041E+00  1.195252057805E+01
   56     6 C     1.548961611673E+00 -1.152653618165E+00  1.196018697584E+01
   57     6 C     3.233854398993E-01 -1.861897751154E+00  1.196376286889E+01
   58     6 C     2.774425611157E+00 -3.277533512639E+00  1.195950009420E+01
   59     6 C     2.774474312446E+00 -1.861890325435E+00  1.195746596408E+01
   60     6 C    -3.347947867772E+00  2.634163436911E-01  8.590622338516E+00
   61     6 C    -1.514849484730E+00 -9.199058327302E-02  1.867811182690E+01
   62     6 C    -8.968554546605E-01 -2.567196161794E+00  8.589761047721E+00
   63     6 C    -2.740333868076E+00 -7.990914299414E-01  1.867805402134E+01
   64     6 C    -8.968851135851E-01  2.632292541059E-01  8.590738888859E+00
   65     6 C    -2.741523843833E+00 -2.214477560527E+00  1.868656344306E+01
   66     6 C    -3.347927718372E+00  1.678638072828E+00  8.589089310773E+00
   67     6 C    -1.515009021036E+00 -2.920672396479E+00  1.868494530794E+01
   68     6 C    -2.122413173954E+00 -1.859517158456E+00  8.591814955981E+00
   69     6 C    -2.880131656158E-01 -2.213953335422E+00  1.867944018399E+01
   70     6 C    -2.122410912534E+00 -4.442955614310E-01  8.589996664508E+00
   71     6 C    -2.866037066453E-01 -7.978003893766E-01  1.867814503624E+01
   72     6 C    -3.355132111211E+00 -1.155842123456E+00  1.195843515945E+01
   73     6 C    -2.128919473511E+00 -1.862722291359E+00  1.196369466631E+01
   74     6 C    -2.127706501856E+00  9.685144487088E-01  1.196567059120E+01
   75     6 C    -3.353288034001E+00  2.593981790532E-01  1.195775334423E+01
   76     6 C    -9.037065810091E-01 -1.155008806212E+00  1.196662298408E+01
   77     6 C    -9.006657920761E-01  2.616634774668E-01  1.196429350079E+01

 ****    1 SYMMOPS - TRANSLATORS IN FRACTIONAL UNITS
 **** MATRICES AND TRANSLATORS IN THE CRYSTALLOGRAPHIC REFERENCE FRAME
   V INV                    ROTATION MATRICES                   TRANSLATORS
   1   1  1.00 -0.00  0.00  0.00  1.00  0.00 -0.00  0.00  1.00  0.00  0.00  0.00
 TTTTTTTTTTTTTTTTTTTTTTTTTTTTTT END         TELAPSE   230005.70 TCPU   229349.90
 EEEEEEEEEE TERMINATION  DATE 23 03 2024 TIME 12:05:41.0
