         120 PROCESSORS WORKING

         
 *******************************************************************************
 *                                                                             *
 *                               CRYSTAL23                                     *
 *                      public : 1.0.1 - October 2022                          *
 *                       HTTP://WWW.CRYSTAL.UNITO.IT                           *
 *                                                                             *
 *                              MAIN AUTHORS                                   *
 *                                                                             *
 *  R. DOVESI(1,11), V.R. SAUNDERS(2), C. ROETTI(1,11), R. ORLANDO(1,11),      *
 *  C.M. ZICOVICH-WILSON(1,3), F. PASCALE(4), B. CIVALLERI(1,11),              *
 *  K. DOLL(5), N.M. HARRISON(6), I.J. BUSH(7), Ph. D'ARCO(8),                 *
 *  M. LLUNELL(9), M. CAUSA'(10), Y. NOEL(8), L. MASCHIO(1,11), A. ERBA(1,11)  *
 *  M. RE'RAT(14), S. CASASSA(1,11), B.G. SEARLE(2), J.K. DESMARAIS(1)         *
 *                                                                             *
 *        CONTRIBUTIONS TO THE CODE HAVE ALSO BEEN GIVEN BY                    *
 *                                                                             *
 *  M. FERRABONE(1,11), M. DE LA PIERRE(1,11), M. FERRERO(1,11),               *
 *  J. BAIMA(1,11), E. ALBANESE(1,11), M.F. PEINTINGER(12), R. BAST(13),       *
 *  B. KIRTMAN(15), V. LACIVITA(1,11), R. DEMICHELIS(1,16)                     *
 *  G. BRANDEBURG(17), S. SALUSTRO(1,11), G. SANSONE(1,11)                     *
 *  M.T. RUGGIERO(18), L.E. DAGA(1), L. DONA'(1), A. COSSARD(1)                *
 *                                                                             *
 * (1) THEORETICAL CHEMISTRY GROUP - UNIVERSITA' DI TORINO - TORINO (ITALY)    *
 * (2) SCIENTIFIC COMPUTING DEPARTMENT - STFC DARESBURY (UK)                   *
 * (3) UNIVERSIDAD AUTONOMA DEL ESTADO DE MORELOS - CUERNAVACA (MEXICO)        *
 * (4) UNIVERSITE' DE LORRAINE - NANCY (FRANCE)                                *
 * (5) UNIVERSITAET STUTTGART- STUTTGART (GERMANY)                             *
 * (6) IMPERIAL COLLEGE - LONDON (UK)                                          *
 * (7) SCIENTIFIC COMPUTING DEPARTMENT - STFC RAL (UK)                         *
 * (8) UPMC - SORBONNE UNIVERSITES - PARIS (FRANCE)                            *
 * (9) UNIVERSIDAD DE BARCELONA - BARCELONA (SPAIN)                            *
 *(10) UNIVERSITA' DI NAPOLI "FEDERICO II" - NAPOLI (ITALY)                    *
 *(11) NIS - NANOSTRUCTURED INTERFACES AND SURFACES - TORINO (ITALY)           *
 *(12) MPI FUER CHEMISCHE ENERGIEKONVERSION - MUELHEIM AN DER RUHR (GERMANY)   *
 *(13) UNIVERSITY OF TROMSO - TROMSO (NORWAY)                                  *
 *(14) UNIVERSITE' DE PAU ET DES PAYS DE L'ADOUR - PAU (FRANCE)                *
 *(15) UNIVERSITY OF CALIFORNIA SANTA BARBARA - SANTA BARBARA (USA)            *
 *(16) CURTIN UNIVERSITY - PERTH (AUSTRALIA)                                   *
 *(17) UNIVERSITY COLLEGE LONDON - LONDON (UK)                                 *
 *(18) UNIVERSITY OF VERMONT - BURLINGTON (USA)                                *
 *                                                                             *
 *******************************************************************************
 EEEEEEEEEE STARTING  DATE 09 05 2024 TIME 11:32:41.7
 3LG_BF4_2x2_Sol_ad                                                              

 SLAB CALCULATION
 SYSTEM AND LATTICE                   :  OBLIQUE     
 TWO-SIDED PLANE GROUP N.  1          :  P 1             
 CORRESPONDING SPACE GROUP N.   1

 LATTICE PARAMETERS  (ANGSTROMS AND DEGREES) - CONVENTIONAL CELL
           A              B            GAMMA
        8.49112        8.49124      120.00460


 NUMBER OF IRREDUCIBLE ATOMS IN THE CONVENTIONAL CELL:   77

 INPUT COORDINATES

 ATOM AT. N.              COORDINATES
   1   6     4.470525431600E-02  3.033433186020E-01  8.591713658360E+00
   2   6     2.942602411580E-01  3.863880936280E-01  1.869723176516E+01
   3   6     3.780308492800E-01  1.366800233260E-01  8.590647403160E+00
   4   6     1.278439488870E-01  2.199352608650E-01  1.868674065356E+01
   5   6     3.780340196580E-01  4.700101105850E-01  8.593325623680E+00
   6   6     1.276814515190E-01  5.316699488100E-02  1.867808494088E+01
   7   6     4.470298671200E-02  4.700102842460E-01  8.589775890520E+00
   8   6     2.942869618090E-01  5.315986862100E-02  1.868418365508E+01
   9   6     2.113662496060E-01  1.366809736460E-01  8.592147793920E+00
  10   6     4.608429023400E-01  2.198754437760E-01  1.869075993060E+01
  11   6     2.113669672370E-01  3.033431524670E-01  8.591733358800E+00
  12   6     4.607462704470E-01  3.863108142410E-01  1.869715052028E+01
  13   5     3.770589694110E-01  3.860533125190E-01  1.531247581312E+01
  14   9     2.256869034580E-01  3.433377801890E-01  1.451175566004E+01
  15   9     3.377526080290E-01  2.355960054090E-01  1.611022339292E+01
  16   9     4.164073313500E-01  5.365457452300E-01  1.610991065696E+01
  17   9     5.283832084260E-01  4.287240961070E-01  1.451135253920E+01
  18   6     4.411870312200E-02  1.362067456550E-01  1.196681766916E+01
  19   6     2.108932265560E-01  1.363984429330E-01  1.195479446172E+01
  20   6     2.108524789050E-01  4.693976010140E-01  1.195449475412E+01
  21   6     4.414312277600E-02  3.028278886600E-01  1.195785358000E+01
  22   6     3.773498454350E-01  3.027829576470E-01  1.194765128340E+01
  23   6     3.772734649000E-01  4.692730892530E-01  1.194317619112E+01
  24   6     5.447009761560E-01  3.033481141310E-01  8.592330095280E+00
  25   6     7.941452160310E-01  3.863414782870E-01  1.868612467356E+01
  26   6     8.780317982330E-01  1.366749649580E-01  8.589753449640E+00
  27   6     6.272659701640E-01  2.196738670960E-01  1.869054378672E+01
  28   6     8.780380213680E-01  4.700099445820E-01  8.590570463440E+00
  29   6     6.274550837900E-01  5.300542463100E-02  1.868290642968E+01
  30   6     5.446987894840E-01  4.700104488500E-01  8.591791546680E+00
  31   6     7.941787131180E-01  5.302119041500E-02  1.867948502860E+01
  32   6     7.113677517620E-01  1.366798868710E-01  8.590265039240E+00
  33   6     9.610450968560E-01  2.196934396920E-01  1.868505225812E+01
  34   6     7.113674204840E-01  3.033454487510E-01  8.589911803480E+00
  35   6     9.608647379510E-01  3.863591706210E-01  1.868620452040E+01
  36   6     5.439939540560E-01  1.362944028390E-01  1.195486155764E+01
  37   6     7.106630414870E-01  1.360938538270E-01  1.196045734888E+01
  38   6     7.105168800440E-01  4.692604795980E-01  1.196079147208E+01
  39   6     5.437874485090E-01  3.027278909670E-01  1.195048260972E+01
  40   6     8.775387737370E-01  3.027505422140E-01  1.195950015744E+01
  41   6     8.771018544750E-01  4.693460105970E-01  1.195708291236E+01
  42   6     4.469781445700E-02  8.033443894210E-01  8.590242622400E+00
  43   6     2.942067654710E-01  8.865620153840E-01  1.868575105588E+01
  44   6     3.780309665130E-01  6.366730287670E-01  8.590444557280E+00
  45   6     1.275540732630E-01  7.196946791110E-01  1.868296833340E+01
  46   6     3.780324442580E-01  9.700197119060E-01  8.590265951640E+00
  47   6     1.277434660780E-01  5.530268622320E-01  1.869064120132E+01
  48   6     4.469841342000E-02  9.700119512310E-01  8.589965489240E+00
  49   6     2.941662101740E-01  5.528247020490E-01  1.869093037652E+01
  50   6     2.113704068780E-01  6.366800098400E-01  8.590457338920E+00
  51   6     4.607203951160E-01  7.195402332860E-01  1.868418378932E+01
  52   6     2.113664356230E-01  8.033459920160E-01  8.588995897920E+00
  53   6     4.608017002170E-01  8.861394153550E-01  1.868575377620E+01
  54   6     4.397120729400E-02  6.359934315420E-01  1.196249350820E+01
  55   6     2.106410409670E-01  6.358100815410E-01  1.195252057804E+01
  56   6     2.106514044640E-01  9.695922586160E-01  1.196018697584E+01
  57   6     4.397836122300E-02  8.027191409790E-01  1.196376286888E+01
  58   6     3.773082856160E-01  8.026870806850E-01  1.195950009420E+01
  59   6     3.773153618990E-01  9.694086331170E-01  1.195746596408E+01
  60   6     5.446943166830E-01  8.033417978460E-01  8.590622338520E+00
  61   6     7.939872921220E-01  8.861476303930E-01  1.867811182692E+01
  62   6     8.780308928160E-01  6.366735359020E-01  8.589761047720E+00
  63   6     6.273267323790E-01  7.195331666290E-01  1.867805402136E+01
  64   6     8.780277653170E-01  9.700066059960E-01  8.590738888840E+00
  65   6     6.271644480120E-01  5.527642739320E-01  1.868656344304E+01
  66   6     5.446975099030E-01  9.700117740750E-01  8.589089310760E+00
  67   6     7.939646904840E-01  5.530070354530E-01  1.868494530796E+01
  68   6     7.113608125670E-01  6.366706513450E-01  8.591814956000E+00
  69   6     9.608308034710E-01  7.196793259680E-01  1.867944018400E+01
  70   6     7.113615731030E-01  8.033393955270E-01  8.589996664520E+00
  71   6     9.610229368070E-01  8.865534515720E-01  1.867814503624E+01
  72   6     5.437168377830E-01  6.357092198550E-01  1.195843515944E+01
  73   6     7.104759842290E-01  6.358507204460E-01  1.196369466632E+01
  74   6     7.106418491280E-01  9.693638452760E-01  1.196567059120E+01
  75   6     5.439680769420E-01  8.025054213800E-01  1.195775334424E+01
  76   6     8.770996226420E-01  8.025188707600E-01  1.196662298408E+01
  77   6     8.775136096410E-01  9.695650981390E-01  1.196429350080E+01

 *******************************************************************************

 << INFORMATION >>: FROM NOW ON, ALL COORDINATES REFER TO THE PRIMITIVE CELL

 *******************************************************************************

 LATTICE PARAMETERS  (ANGSTROMS AND DEGREES) - PRIMITIVE CELL
       A          B          C        ALPHA      BETA     GAMMA        VOLUME
    8.49112    8.49124  500.00000    90.00000  90.00000 120.00460     62.437688

 COORDINATES OF THE EQUIVALENT ATOMS 
 (X AND Y IN FRACTIONARY UNITS, Z IN ANGSTROMS)

 N. ATOM EQUIV AT. N.          X                  Y                  Z

   1   1   1    6 C     4.47052543160E-02  3.03343318602E-01  8.59171365836E+00

   2   2   1    6 C     2.94260241158E-01  3.86388093628E-01  1.86972317652E+01

   3   3   1    6 C     3.78030849280E-01  1.36680023326E-01  8.59064740316E+00

   4   4   1    6 C     1.27843948887E-01  2.19935260865E-01  1.86867406536E+01

   5   5   1    6 C     3.78034019658E-01  4.70010110585E-01  8.59332562368E+00

   6   6   1    6 C     1.27681451519E-01  5.31669948810E-02  1.86780849409E+01

   7   7   1    6 C     4.47029867120E-02  4.70010284246E-01  8.58977589052E+00

   8   8   1    6 C     2.94286961809E-01  5.31598686210E-02  1.86841836551E+01

   9   9   1    6 C     2.11366249606E-01  1.36680973646E-01  8.59214779392E+00

  10  10   1    6 C     4.60842902340E-01  2.19875443776E-01  1.86907599306E+01

  11  11   1    6 C     2.11366967237E-01  3.03343152467E-01  8.59173335880E+00

  12  12   1    6 C     4.60746270447E-01  3.86310814241E-01  1.86971505203E+01

  13  13   1    5 B     3.77058969411E-01  3.86053312519E-01  1.53124758131E+01

  14  14   1    9 F     2.25686903458E-01  3.43337780189E-01  1.45117556600E+01

  15  15   1    9 F     3.37752608029E-01  2.35596005409E-01  1.61102233929E+01

  16  16   1    9 F     4.16407331350E-01 -4.63454254770E-01  1.61099106570E+01

  17  17   1    9 F    -4.71616791574E-01  4.28724096107E-01  1.45113525392E+01

  18  18   1    6 C     4.41187031220E-02  1.36206745655E-01  1.19668176692E+01

  19  19   1    6 C     2.10893226556E-01  1.36398442933E-01  1.19547944617E+01

  20  20   1    6 C     2.10852478905E-01  4.69397601014E-01  1.19544947541E+01

  21  21   1    6 C     4.41431227760E-02  3.02827888660E-01  1.19578535800E+01

  22  22   1    6 C     3.77349845435E-01  3.02782957647E-01  1.19476512834E+01

  23  23   1    6 C     3.77273464900E-01  4.69273089253E-01  1.19431761911E+01

  24  24   1    6 C    -4.55299023844E-01  3.03348114131E-01  8.59233009528E+00

  25  25   1    6 C    -2.05854783969E-01  3.86341478287E-01  1.86861246736E+01

  26  26   1    6 C    -1.21968201767E-01  1.36674964958E-01  8.58975344964E+00

  27  27   1    6 C    -3.72734029836E-01  2.19673867096E-01  1.86905437867E+01

  28  28   1    6 C    -1.21961978632E-01  4.70009944582E-01  8.59057046344E+00

  29  29   1    6 C    -3.72544916210E-01  5.30054246310E-02  1.86829064297E+01

  30  30   1    6 C    -4.55301210516E-01  4.70010448850E-01  8.59179154668E+00

  31  31   1    6 C    -2.05821286882E-01  5.30211904150E-02  1.86794850286E+01

  32  32   1    6 C    -2.88632248238E-01  1.36679886871E-01  8.59026503924E+00

  33  33   1    6 C    -3.89549031440E-02  2.19693439692E-01  1.86850522581E+01

  34  34   1    6 C    -2.88632579516E-01  3.03345448751E-01  8.58991180348E+00

  35  35   1    6 C    -3.91352620490E-02  3.86359170621E-01  1.86862045204E+01

  36  36   1    6 C    -4.56006045944E-01  1.36294402839E-01  1.19548615576E+01

  37  37   1    6 C    -2.89336958513E-01  1.36093853827E-01  1.19604573489E+01

  38  38   1    6 C    -2.89483119956E-01  4.69260479598E-01  1.19607914721E+01

  39  39   1    6 C    -4.56212551491E-01  3.02727890967E-01  1.19504826097E+01

  40  40   1    6 C    -1.22461226263E-01  3.02750542214E-01  1.19595001574E+01

  41  41   1    6 C    -1.22898145525E-01  4.69346010597E-01  1.19570829124E+01

  42  42   1    6 C     4.46978144570E-02 -1.96655610579E-01  8.59024262240E+00

  43  43   1    6 C     2.94206765471E-01 -1.13437984616E-01  1.86857510559E+01

  44  44   1    6 C     3.78030966513E-01 -3.63326971233E-01  8.59044455728E+00

  45  45   1    6 C     1.27554073263E-01 -2.80305320889E-01  1.86829683334E+01

  46  46   1    6 C     3.78032444258E-01 -2.99802880940E-02  8.59026595164E+00

  47  47   1    6 C     1.27743466078E-01 -4.46973137768E-01  1.86906412013E+01

  48  48   1    6 C     4.46984134200E-02 -2.99880487690E-02  8.58996548924E+00

  49  49   1    6 C     2.94166210174E-01 -4.47175297951E-01  1.86909303765E+01

  50  50   1    6 C     2.11370406878E-01 -3.63319990160E-01  8.59045733892E+00

  51  51   1    6 C     4.60720395116E-01 -2.80459766714E-01  1.86841837893E+01

  52  52   1    6 C     2.11366435623E-01 -1.96654007984E-01  8.58899589792E+00

  53  53   1    6 C     4.60801700217E-01 -1.13860584645E-01  1.86857537762E+01

  54  54   1    6 C     4.39712072940E-02 -3.64006568458E-01  1.19624935082E+01

  55  55   1    6 C     2.10641040967E-01 -3.64189918459E-01  1.19525205780E+01

  56  56   1    6 C     2.10651404464E-01 -3.04077413840E-02  1.19601869758E+01

  57  57   1    6 C     4.39783612230E-02 -1.97280859021E-01  1.19637628689E+01

  58  58   1    6 C     3.77308285616E-01 -1.97312919315E-01  1.19595000942E+01

  59  59   1    6 C     3.77315361899E-01 -3.05913668830E-02  1.19574659641E+01

  60  60   1    6 C    -4.55305683317E-01 -1.96658202154E-01  8.59062233852E+00

  61  61   1    6 C    -2.06012707878E-01 -1.13852369607E-01  1.86781118269E+01

  62  62   1    6 C    -1.21969107184E-01 -3.63326464098E-01  8.58976104772E+00

  63  63   1    6 C    -3.72673267621E-01 -2.80466833371E-01  1.86780540214E+01

  64  64   1    6 C    -1.21972234683E-01 -2.99933940040E-02  8.59073888884E+00

  65  65   1    6 C    -3.72835551988E-01 -4.47235726068E-01  1.86865634430E+01

  66  66   1    6 C    -4.55302490097E-01 -2.99882259250E-02  8.58908931076E+00

  67  67   1    6 C    -2.06035309516E-01 -4.46992964547E-01  1.86849453080E+01

  68  68   1    6 C    -2.88639187433E-01 -3.63329348655E-01  8.59181495600E+00

  69  69   1    6 C    -3.91691965290E-02 -2.80320674032E-01  1.86794401840E+01

  70  70   1    6 C    -2.88638426897E-01 -1.96660604473E-01  8.58999666452E+00

  71  71   1    6 C    -3.89770631930E-02 -1.13446548428E-01  1.86781450362E+01

  72  72   1    6 C    -4.56283162217E-01 -3.64290780145E-01  1.19584351594E+01

  73  73   1    6 C    -2.89524015771E-01 -3.64149279554E-01  1.19636946663E+01

  74  74   1    6 C    -2.89358150872E-01 -3.06361547240E-02  1.19656705912E+01

  75  75   1    6 C    -4.56031923058E-01 -1.97494578620E-01  1.19577533442E+01

  76  76   1    6 C    -1.22900377358E-01 -1.97481129240E-01  1.19666229841E+01

  77  77   1    6 C    -1.22486390359E-01 -3.04349018610E-02  1.19642935008E+01

 NUMBER OF SYMMETRY OPERATORS         :    1
 *******************************************************************************
 * GEOMETRY EDITING - INPUT COORDINATES ARE GIVEN IN ANGSTROM         
 *******************************************************************************

 FRQFRQFRQFRQFRQFRQFRQFRQFRQFRQFRQFRQFRQFRQFRQFRQFRQFRQFRQFRQFRQFRQFRQFRQFRQFRQ

                       FREQUENCY CALCULATION

 INFORMATION **** INPFREQ **** FREQUENCY CALCULATION RESTART(DATA FROM FREQINFO.DAT)
 INFORMATION **** INPFREQ **** IR INTENSITIES EVALUATED THROUGH CPHF APPROACH
 INFORMATION **** INPFREQ **** NEW DEFAULT - IMPOSING ECKART CONDITIONS TO THE HESSIAN

 GCALCO - MAX INDICES DIRECT LATTICE VECTOR    83    83     0
 NO.OF VECTORS CREATED 6999 STARS 3500 RMAX   705.42948 BOHR

 GEOMETRY FOR WAVE FUNCTION - DIMENSIONALITY OF THE SYSTEM    2
 (NON PERIODIC DIRECTION: LATTICE PARAMETER FORMALLY SET TO 500)
 *******************************************************************************
 LATTICE PARAMETERS (ANGSTROMS AND DEGREES) - BOHR = 0.5291772083 ANGSTROM
 PRIMITIVE CELL
         A              B              C           ALPHA      BETA       GAMMA 
     8.49112132     8.49124311   500.00000000    90.000000  90.000000 120.004602
 *******************************************************************************
 ATOMS IN THE ASYMMETRIC UNIT   77 - ATOMS IN THE UNIT CELL:   77
     ATOM                 X/A                 Y/B             Z(ANGSTROM)
 *******************************************************************************
      1 T   6 C     4.470525431600E-02  3.033433186020E-01  8.591713658360E+00
      2 T   6 C     2.942602411580E-01  3.863880936280E-01  1.869723176516E+01
      3 T   6 C     3.780308492800E-01  1.366800233260E-01  8.590647403160E+00
      4 T   6 C     1.278439488870E-01  2.199352608650E-01  1.868674065356E+01
      5 T   6 C     3.780340196580E-01  4.700101105850E-01  8.593325623680E+00
      6 T   6 C     1.276814515190E-01  5.316699488100E-02  1.867808494088E+01
      7 T   6 C     4.470298671200E-02  4.700102842460E-01  8.589775890520E+00
      8 T   6 C     2.942869618090E-01  5.315986862100E-02  1.868418365508E+01
      9 T   6 C     2.113662496060E-01  1.366809736460E-01  8.592147793920E+00
     10 T   6 C     4.608429023400E-01  2.198754437760E-01  1.869075993060E+01
     11 T   6 C     2.113669672370E-01  3.033431524670E-01  8.591733358800E+00
     12 T   6 C     4.607462704470E-01  3.863108142410E-01  1.869715052028E+01
     13 T   5 B     3.770589694110E-01  3.860533125190E-01  1.531247581312E+01
     14 T   9 F     2.256869034580E-01  3.433377801890E-01  1.451175566004E+01
     15 T   9 F     3.377526080290E-01  2.355960054090E-01  1.611022339292E+01
     16 T   9 F     4.164073313500E-01 -4.634542547700E-01  1.610991065696E+01
     17 T   9 F    -4.716167915740E-01  4.287240961070E-01  1.451135253920E+01
     18 T   6 C     4.411870312200E-02  1.362067456550E-01  1.196681766916E+01
     19 T   6 C     2.108932265560E-01  1.363984429330E-01  1.195479446172E+01
     20 T   6 C     2.108524789050E-01  4.693976010140E-01  1.195449475412E+01
     21 T   6 C     4.414312277600E-02  3.028278886600E-01  1.195785358000E+01
     22 T   6 C     3.773498454350E-01  3.027829576470E-01  1.194765128340E+01
     23 T   6 C     3.772734649000E-01  4.692730892530E-01  1.194317619112E+01
     24 T   6 C    -4.552990238440E-01  3.033481141310E-01  8.592330095280E+00
     25 T   6 C    -2.058547839690E-01  3.863414782870E-01  1.868612467356E+01
     26 T   6 C    -1.219682017670E-01  1.366749649580E-01  8.589753449640E+00
     27 T   6 C    -3.727340298360E-01  2.196738670960E-01  1.869054378672E+01
     28 T   6 C    -1.219619786320E-01  4.700099445820E-01  8.590570463440E+00
     29 T   6 C    -3.725449162100E-01  5.300542463100E-02  1.868290642968E+01
     30 T   6 C    -4.553012105160E-01  4.700104488500E-01  8.591791546680E+00
     31 T   6 C    -2.058212868820E-01  5.302119041500E-02  1.867948502860E+01
     32 T   6 C    -2.886322482380E-01  1.366798868710E-01  8.590265039240E+00
     33 T   6 C    -3.895490314400E-02  2.196934396920E-01  1.868505225812E+01
     34 T   6 C    -2.886325795160E-01  3.033454487510E-01  8.589911803480E+00
     35 T   6 C    -3.913526204900E-02  3.863591706210E-01  1.868620452040E+01
     36 T   6 C    -4.560060459440E-01  1.362944028390E-01  1.195486155764E+01
     37 T   6 C    -2.893369585130E-01  1.360938538270E-01  1.196045734888E+01
     38 T   6 C    -2.894831199560E-01  4.692604795980E-01  1.196079147208E+01
     39 T   6 C    -4.562125514910E-01  3.027278909670E-01  1.195048260972E+01
     40 T   6 C    -1.224612262630E-01  3.027505422140E-01  1.195950015744E+01
     41 T   6 C    -1.228981455250E-01  4.693460105970E-01  1.195708291236E+01
     42 T   6 C     4.469781445700E-02 -1.966556105790E-01  8.590242622400E+00
     43 T   6 C     2.942067654710E-01 -1.134379846160E-01  1.868575105588E+01
     44 T   6 C     3.780309665130E-01 -3.633269712330E-01  8.590444557280E+00
     45 T   6 C     1.275540732630E-01 -2.803053208890E-01  1.868296833340E+01
     46 T   6 C     3.780324442580E-01 -2.998028809400E-02  8.590265951640E+00
     47 T   6 C     1.277434660780E-01 -4.469731377680E-01  1.869064120132E+01
     48 T   6 C     4.469841342000E-02 -2.998804876900E-02  8.589965489240E+00
     49 T   6 C     2.941662101740E-01 -4.471752979510E-01  1.869093037652E+01
     50 T   6 C     2.113704068780E-01 -3.633199901600E-01  8.590457338920E+00
     51 T   6 C     4.607203951160E-01 -2.804597667140E-01  1.868418378932E+01
     52 T   6 C     2.113664356230E-01 -1.966540079840E-01  8.588995897920E+00
     53 T   6 C     4.608017002170E-01 -1.138605846450E-01  1.868575377620E+01
     54 T   6 C     4.397120729400E-02 -3.640065684580E-01  1.196249350820E+01
     55 T   6 C     2.106410409670E-01 -3.641899184590E-01  1.195252057804E+01
     56 T   6 C     2.106514044640E-01 -3.040774138400E-02  1.196018697584E+01
     57 T   6 C     4.397836122300E-02 -1.972808590210E-01  1.196376286888E+01
     58 T   6 C     3.773082856160E-01 -1.973129193150E-01  1.195950009420E+01
     59 T   6 C     3.773153618990E-01 -3.059136688300E-02  1.195746596408E+01
     60 T   6 C    -4.553056833170E-01 -1.966582021540E-01  8.590622338520E+00
     61 T   6 C    -2.060127078780E-01 -1.138523696070E-01  1.867811182692E+01
     62 T   6 C    -1.219691071840E-01 -3.633264640980E-01  8.589761047720E+00
     63 T   6 C    -3.726732676210E-01 -2.804668333710E-01  1.867805402136E+01
     64 T   6 C    -1.219722346830E-01 -2.999339400400E-02  8.590738888840E+00
     65 T   6 C    -3.728355519880E-01 -4.472357260680E-01  1.868656344304E+01
     66 T   6 C    -4.553024900970E-01 -2.998822592500E-02  8.589089310760E+00
     67 T   6 C    -2.060353095160E-01 -4.469929645470E-01  1.868494530796E+01
     68 T   6 C    -2.886391874330E-01 -3.633293486550E-01  8.591814956000E+00
     69 T   6 C    -3.916919652900E-02 -2.803206740320E-01  1.867944018400E+01
     70 T   6 C    -2.886384268970E-01 -1.966606044730E-01  8.589996664520E+00
     71 T   6 C    -3.897706319300E-02 -1.134465484280E-01  1.867814503624E+01
     72 T   6 C    -4.562831622170E-01 -3.642907801450E-01  1.195843515944E+01
     73 T   6 C    -2.895240157710E-01 -3.641492795540E-01  1.196369466632E+01
     74 T   6 C    -2.893581508720E-01 -3.063615472400E-02  1.196567059120E+01
     75 T   6 C    -4.560319230580E-01 -1.974945786200E-01  1.195775334424E+01
     76 T   6 C    -1.229003773580E-01 -1.974811292400E-01  1.196662298408E+01
     77 T   6 C    -1.224863903590E-01 -3.043490186100E-02  1.196429350080E+01

 T = ATOM BELONGING TO THE ASYMMETRIC UNIT

 ****    1 SYMMOPS - TRANSLATORS IN FRACTIONAL UNITS
 **** MATRICES AND TRANSLATORS IN THE CRYSTALLOGRAPHIC REFERENCE FRAME
   V INV                    ROTATION MATRICES                   TRANSLATORS
   1   1  1.00  0.00  0.00  0.00  1.00  0.00  0.00  0.00  1.00  0.00  0.00  0.00

 DIRECT LATTICE VECTORS CARTESIAN COMPONENTS (ANGSTROM)
          X                    Y                    Z
   0.735318574236E+01  -0.424615128196E+01   0.000000000000E+00
   0.000000000000E+00   0.849124311000E+01   0.000000000000E+00
   0.000000000000E+00   0.000000000000E+00   0.500000000000E+03


 CARTESIAN COORDINATES - PRIMITIVE CELL
 *******************************************************************************
 *      ATOM          X(ANGSTROM)         Y(ANGSTROM)         Z(ANGSTROM)
 *******************************************************************************
    1     6 C     3.287260386451E-01  2.385936591120E+00  8.591713658360E+00
    2     6 C     2.163750209827E+00  2.031441737582E+00  1.869723176516E+01
    3     6 C     2.779731051099E+00 -4.445928689486E-01  8.590647403160E+00
    4     6 C     9.400603022032E-01  1.324679021009E+00  1.868674065356E+01
    5     6 C     2.779754363477E+00  2.385780475940E+00  8.593325623680E+00
    6     6 C     9.388654288736E-01 -9.070088008702E-02  1.867808494088E+01
    7     6 C     3.287093645317E-01  3.801155943398E+00  8.589775890520E+00
    8     6 C     2.163946691737E+00 -7.981935919924E-01  1.868418365508E+01
    9     6 C     1.554215293019E+00  2.630983040124E-01  8.592147793920E+00
   10     6 C     3.388663458955E+00 -8.979283353130E-02  1.869075993060E+01
   11     6 C     1.554220569893E+00  1.678264334454E+00  8.591733358800E+00
   12     6 C     3.387952906698E+00  1.323860672826E+00  1.869715052028E+01
   13     5 B     2.772584637903E+00  1.677023103681E+00  1.531247581312E+01
   14     9 F     1.659517720745E+00  1.957063825993E+00  1.451175566004E+01
   15     9 F     2.483557661805E+00  5.663542881055E-01  1.611022339292E+01
   16     9 F     3.061920451898E+00  2.787811838555E+00  1.610991065696E+01
   17     9 F     3.885299874702E+00  1.396805489336E+00  1.451135253920E+01
   18     6 C     3.244130187682E-01  9.692299027587E-01  1.196681766916E+01
   19     6 C     1.550737066672E+00  2.627077944724E-01  1.195479446172E+01
   20     6 C     1.550437441626E+00  3.090457621854E+00  1.195449475412E+01
   21     6 C     3.245925810198E-01  2.383946845735E+00  1.195785358000E+01
   22     6 C     2.774723503335E+00  9.687191730049E-01  1.194765128340E+01
   23     6 C     2.774161863074E+00  2.382751679194E+00  1.194317619112E+01
   24     6 C     4.005287451721E+00  2.629198358575E-01  8.592330095280E+00
   25     6 C    -1.513688462478E+00  4.154609970459E+00  1.868612467356E+01
   26     6 C    -8.968548422547E-01  1.678435790800E+00  8.589753449640E+00
   27     6 C    -2.740782553883E+00  3.447989289044E+00  1.869054378672E+01
   28     6 C    -8.968090823871E-01 -3.982405394518E+00  8.590570463440E+00
   29     6 C    -2.739391966265E+00  2.031964020243E+00  1.868290642968E+01
   30     6 C    -3.347914369647E+00 -2.566992305865E+00  8.591791546680E+00
   31     6 C    -1.513442152175E+00  1.324164138944E+00  1.867948502860E+01
   32     6 C    -2.122366532530E+00  2.386158338539E+00  8.590265039240E+00
   33     6 C    -2.864426383936E-01  2.030878818020E+00  1.868505225812E+01
   34     6 C    -2.122368968478E+00  3.801357549184E+00  8.589911803480E+00
   35     6 C    -2.877688509223E-01  3.446843888640E+00  1.868620452040E+01
   36     6 C     4.000088586896E+00 -1.152571716354E+00  1.195486155764E+01
   37     6 C    -2.127548398076E+00  2.384174495930E+00  1.196045734888E+01
   38     6 C    -2.128623150315E+00 -3.277449174912E+00  1.196079147208E+01
   39     6 C     3.998570113252E+00  2.615323467790E-01  1.195048260972E+01
   40     6 C    -9.004801429493E-01  3.090717348510E+00  1.195950015744E+01
   41     6 C    -9.036928914372E-01 -3.984067913141E+00  1.195708291236E+01
   42     6 C     3.286713319800E-01 -1.859644280529E+00  8.590242622400E+00
   43     6 C     2.163356993168E+00 -2.212475939648E+00  1.868575105588E+01
   44     6 C    -4.573453829227E+00 -4.441230322801E-01  8.590444557280E+00
   45     6 C     9.379287928977E-01 -2.921754516400E+00  1.868296833340E+01
   46     6 C     2.779742779268E+00 -1.859752862522E+00  8.590265951640E+00
   47     6 C     9.393214334447E-01  4.153467451323E+00  1.869064120132E+01
   48     6 C     3.286757362662E-01 -4.444320379370E-01  8.589965489240E+00
   49     6 C     2.163058782536E+00  3.445094711872E+00  1.869093037652E+01
   50     6 C     1.554245862213E+00 -3.982549087304E+00  8.590457338920E+00
   51     6 C    -3.965423101780E+00 -9.158927613020E-02  1.868418378932E+01
   52     6 C     1.554216660837E+00 -2.567330851932E+00  8.588995897920E+00
   53     6 C    -3.964825250270E+00  1.322699646986E+00  1.868575377620E+01
   54     6 C     3.233284545487E-01 -3.277576664634E+00  1.196249350820E+01
   55     6 C     1.548882699195E+00 -3.986838861982E+00  1.195252057804E+01
   56     6 C     1.548958903913E+00 -1.152657255629E+00  1.196018697584E+01
   57     6 C     3.233810587174E-01 -1.861898509782E+00  1.196376286888E+01
   58     6 C     2.774417906267E+00 -3.277540027309E+00  1.195950009420E+01
   59     6 C     2.774469939490E+00 -1.861896840901E+00  1.195746596408E+01
   60     6 C    -3.347947258983E+00  2.634242068343E-01  8.590622338520E+00
   61     6 C    -1.514849706314E+00 -9.198702532670E-02  1.867811182692E+01
   62     6 C    -8.968614999541E-01 -2.567194054124E+00  8.589761047720E+00
   63     6 C    -2.740335758030E+00 -7.990849933845E-01  1.867805402136E+01
   64     6 C    -8.968844970351E-01  2.632313604806E-01  8.590738888840E+00
   65     6 C    -2.741529065124E+00 -2.214471120487E+00  1.868656344304E+01
   66     6 C    -3.347923778643E+00  1.678645935237E+00  8.589089310760E+00
   67     6 C    -1.515015900356E+00 -2.920668836798E+00  1.868494530796E+01
   68     6 C    -2.122417557719E+00 -1.859512172685E+00  8.591814956000E+00
   69     6 C    -2.880183774568E-01 -2.213952657910E+00  1.867944018400E+01
   70     6 C    -2.122411965357E+00 -4.442905763486E-01  8.589996664520E+00
   71     6 C    -2.866055853499E-01 -7.977997158486E-01  1.867814503624E+01
   72     6 C    -3.355134842894E+00 -1.155834242759E+00  1.195843515944E+01
   73     6 C    -2.128923864839E+00 -1.862717290301E+00  1.196369466632E+01
   74     6 C    -2.127704229428E+00  9.685194455532E-01  1.196567059120E+01
   75     6 C    -3.353287434692E+00  2.594060547373E-01  1.195775334424E+01
   76     6 C    -9.037093025198E-01 -1.155006683142E+00  1.196662298408E+01
   77     6 C    -9.006651792212E-01  2.616655927146E-01  1.196429350080E+01

 *******************************************************************************
 STARTING BASIS SET HANDLING 
 *******************************************************************************

 Loading internal basis set: SOL-DEF2-MSVP       

 Please cite in your publication:
 L. Dona', J. G. Brandenburg and B. Civalleri, J. Chem. Phys., 151, 121101 (2019
 )                                                                              
                                                                                
                    

 *******************************************************************************
 LOCAL ATOMIC FUNCTIONS BASIS SET
 *******************************************************************************
   ATOM   X(AU)   Y(AU)   Z(AU)  N. TYPE  EXPONENT  S COEF   P COEF   D/F/G COEF
 *******************************************************************************
   1 C    0.621   4.509  16.236
                                  1 S  
                                         3.624E+03 1.634E-03 0.000E+00 0.000E+00
                                         5.440E+02 1.252E-02 0.000E+00 0.000E+00
                                         1.237E+02 6.211E-02 0.000E+00 0.000E+00
                                         3.476E+01 2.182E-01 0.000E+00 0.000E+00
                                         1.093E+01 4.980E-01 0.000E+00 0.000E+00
                                  2 S  
                                         3.574E+00 1.000E+00 0.000E+00 0.000E+00
                                  3 S  
                                         7.742E-01 1.000E+00 0.000E+00 0.000E+00
                                  4 S  
                                         2.330E-01 1.000E+00 0.000E+00 0.000E+00
                           5-     7 P  
                                         9.443E+00 0.000E+00 3.790E-02 0.000E+00
                                         2.002E+00 0.000E+00 2.082E-01 0.000E+00
                                         5.463E-01 0.000E+00 5.047E-01 0.000E+00
                           8-    10 P  
                                         1.820E-01 0.000E+00 1.000E+00 0.000E+00
                          11-    15 D  
                                         8.880E-01 0.000E+00 0.000E+00 1.000E+00
   2 C    4.089   3.839  35.333
   3 C    5.253  -0.840  16.234
   4 C    1.776   2.503  35.313
   5 C    5.253   4.508  16.239
   6 C    1.774  -0.171  35.296
   7 C    0.621   7.183  16.232
   8 C    4.089  -1.508  35.308
   9 C    2.937   0.497  16.237
  10 C    6.404  -0.170  35.320
  11 C    2.937   3.171  16.236
  12 C    6.402   2.502  35.332
  13 B    5.239   3.169  28.936
                                181 S  
                                         2.410E+03 1.755E-03 0.000E+00 0.000E+00
                                         3.619E+02 1.344E-02 0.000E+00 0.000E+00
                                         8.231E+01 6.637E-02 0.000E+00 0.000E+00
                                         2.311E+01 2.303E-01 0.000E+00 0.000E+00
                                         7.252E+00 5.150E-01 0.000E+00 0.000E+00
                                182 S  
                                         2.367E+00 1.000E+00 0.000E+00 0.000E+00
                                183 S  
                                         5.533E-01 1.000E+00 0.000E+00 0.000E+00
                                184 S  
                                         1.716E-01 1.000E+00 0.000E+00 0.000E+00
                         185-   187 P  
                                         6.002E+00 0.000E+00-3.555E-02 0.000E+00
                                         1.240E+00 0.000E+00-1.983E-01 0.000E+00
                                         3.367E-01 0.000E+00-5.048E-01 0.000E+00
                         188-   190 P  
                                         1.256E-01 0.000E+00 1.000E+00 0.000E+00
                         191-   195 D  
                                         8.880E-01 0.000E+00 0.000E+00 1.000E+00
  14 F    3.136   3.698  27.423
                                196 S  
                                         8.710E+03 1.394E-03 0.000E+00 0.000E+00
                                         1.307E+03 1.070E-02 0.000E+00 0.000E+00
                                         2.974E+02 5.339E-02 0.000E+00 0.000E+00
                                         8.360E+01 1.911E-01 0.000E+00 0.000E+00
                                         2.639E+01 4.499E-01 0.000E+00 0.000E+00
                                197 S  
                                         8.650E+00 1.000E+00 0.000E+00 0.000E+00
                                198 S  
                                         1.712E+00 1.000E+00 0.000E+00 0.000E+00
                                199 S  
                                         4.941E-01 1.000E+00 0.000E+00 0.000E+00
                         200-   202 P  
                                         2.267E+01 0.000E+00 3.403E-02 0.000E+00
                                         4.976E+00 0.000E+00 1.787E-01 0.000E+00
                                         1.348E+00 0.000E+00 3.850E-01 0.000E+00
                         203-   205 P  
                                         3.778E-01 0.000E+00 1.000E+00 0.000E+00
                         206-   210 D  
                                         5.550E-01 0.000E+00 0.000E+00 1.000E+00
  15 F    4.693   1.070  30.444
  16 F    5.786   5.268  30.443
  17 F    7.342   2.640  27.422
  18 C    0.613   1.832  22.614
  19 C    2.930   0.496  22.591
  20 C    2.930   5.840  22.591
  21 C    0.613   4.505  22.597
  22 C    5.243   1.831  22.578
  23 C    5.242   4.503  22.569
  24 C    7.569   0.497  16.237
  25 C   -2.860   7.851  35.312
  26 C   -1.695   3.172  16.232
  27 C   -5.179   6.516  35.320
  28 C   -1.695  -7.526  16.234
  29 C   -5.177   3.840  35.306
  30 C   -6.327  -4.851  16.236
  31 C   -2.860   2.502  35.299
  32 C   -4.011   4.509  16.233
  33 C   -0.541   3.838  35.310
  34 C   -4.011   7.184  16.233
  35 C   -0.544   6.514  35.312
  36 C    7.559  -2.178  22.591
  37 C   -4.020   4.505  22.602
  38 C   -4.023  -6.193  22.603
  39 C    7.556   0.494  22.583
  40 C   -1.702   5.841  22.600
  41 C   -1.708  -7.529  22.596
  42 C    0.621  -3.514  16.233
  43 C    4.088  -4.181  35.311
  44 C   -8.643  -0.839  16.234
  45 C    1.772  -5.521  35.306
  46 C    5.253  -3.514  16.233
  47 C    1.775   7.849  35.320
  48 C    0.621  -0.840  16.233
  49 C    4.088   6.510  35.321
  50 C    2.937  -7.526  16.234
  51 C   -7.494  -0.173  35.308
  52 C    2.937  -4.852  16.231
  53 C   -7.492   2.500  35.311
  54 C    0.611  -6.194  22.606
  55 C    2.927  -7.534  22.587
  56 C    2.927  -2.178  22.601
  57 C    0.611  -3.518  22.608
  58 C    5.243  -6.194  22.600
  59 C    5.243  -3.518  22.596
  60 C   -6.327   0.498  16.234
  61 C   -2.863  -0.174  35.297
  62 C   -1.695  -4.851  16.232
  63 C   -5.178  -1.510  35.296
  64 C   -1.695   0.497  16.234
  65 C   -5.181  -4.185  35.312
  66 C   -6.327   3.172  16.231
  67 C   -2.863  -5.519  35.309
  68 C   -4.011  -3.514  16.236
  69 C   -0.544  -4.184  35.299
  70 C   -4.011  -0.840  16.233
  71 C   -0.542  -1.508  35.297
  72 C   -6.340  -2.184  22.598
  73 C   -4.023  -3.520  22.608
  74 C   -4.021   1.830  22.612
  75 C   -6.337   0.490  22.597
  76 C   -1.708  -2.183  22.614
  77 C   -1.702   0.494  22.609

 *******************************************************************************
 FINISHED BASIS SET HANDLING 
 *******************************************************************************

 INFORMATION **** SET_MPP **** PCRYSTAL CALCULATION
 INFORMATION **** READM2 **** NEW DEFAULT: FOCK/KS MATRIX MIXING SET TO 30 %
 INFORMATION **** READM2 **** NEW DEFAULT: FULL DIRECT SCF MODE
 INFORMATION **** READM2 **** NEW DEFAULT: COULOMB BIPOLAR BUFFER SET TO 32 Mb
 INFORMATION **** READM2 **** NEW DEFAULT: EXCHANGE BIPOLAR BUFFER SET TO 32 Mb

 *******************************************************************************
 NEW DEFAULT: DFT INTEGRATION GRID INCREASED TO XLGRID
 NEW DEFAULT: DIIS ACCELERATOR ACTIVE
 USE KEYWORD NODIIS TO TURN IT OFF
 *******************************************************************************

 WARNING **** RDDFTP **** HSEsol-HJS ACTIVE
 RANGE SEPARATION - OMEGA:   0.110000000000000     
 WARNING **** RDDFTP **** HSEsol-3c has to be combined with sol-def2-mSVP basis set
 INFORMATION **** TOLINTEG **** COULOMB AND EXCHANGE SERIES TOLERANCES MODIFIED
 INFORMATION **** TOLDEE **** SCF TOL ON TOTAL ENERGY SET TO          11
 INFORMATION **** MAXCYCLE **** MAX NUMBER OF SCF CYCLES SET TO         800
 INFORMATION **** READM2 ****  FREQCALC - MULLIKEN POPULATION ANALYSIS NOT PERFORMED
 *******************************************************************************
 N. OF ATOMS PER CELL        77  COULOMB OVERLAP TOL         (T1) 10**   -9
 NUMBER OF SHELLS           539  COULOMB PENETRATION TOL     (T2) 10**   -9
 NUMBER OF AO              1155  EXCHANGE OVERLAP TOL        (T3) 10**   -9
 N. OF ELECTRONS PER CELL   473  EXCHANGE PSEUDO OVP (F(G))  (T4) 10**  -11
 CORE ELECTRONS PER CELL    154  EXCHANGE PSEUDO OVP (P(G))  (T5) 10**  -38
 N. OF SYMMETRY OPERATORS     1  POLE ORDER IN MONO ZONE                  4
 *******************************************************************************
 TYPE OF CALCULATION :  UNRESTRICTED OPEN SHELL
 KOHN-SHAM HAMILTONIAN

 (EXCHANGE)[CORRELATION] FUNCTIONAL:(HSEsol GGA)[PBEsol]

 RANGE-SEPARATED HYBRID FUNCTIONAL 
 OMEGA (SHORT-RANGE)[LONG-RANGE]:(    0.1100)[    0.0000]

 HYBRID EXCHANGE - PERCENTAGE OF FOCK EXCHANGE    25.0000

 SPIN POLARIZED DFT SELECTED

 CAPPA:IS1  6;IS2  6;IS3  1; K PTS MONK NET  20; SYMMOPS:K SPACE   2;G SPACE   1

 *******************************************************************************
 MAX NUMBER OF SCF CYCLES     800  CONVERGENCE ON DELTAP        10**-21
 WEIGHT OF F(I) IN F(I+1)      30% CONVERGENCE ON ENERGY        10**-11
 SHRINK. FACT.(MONKH.)    6  6  1  NUMBER OF K POINTS IN THE IBZ     20
 SHRINKING FACTOR(GILAT NET)   12  NUMBER OF K POINTS(GILAT NET)     74
 *******************************************************************************
 *** K POINTS COORDINATES (OBLIQUE COORDINATES IN UNITS OF IS =  6)
   1-R(  0  0  0)   2-C(  1  0  0)   3-C(  2  0  0)   4-R(  3  0  0)
   5-C(  0  1  0)   6-C(  1  1  0)   7-C(  2  1  0)   8-C(  3  1  0)
   9-C(  4  1  0)  10-C(  5  1  0)  11-C(  0  2  0)  12-C(  1  2  0)
  13-C(  2  2  0)  14-C(  3  2  0)  15-C(  4  2  0)  16-C(  5  2  0)
  17-R(  0  3  0)  18-C(  1  3  0)  19-C(  2  3  0)  20-R(  3  3  0)

 DIRECT LATTICE VECTORS COMPON. (A.U.)     RECIP. LATTICE VECTORS COMPON. (A.U.) 
        X            Y            Z              X            Y            Z
   13.8955073   -8.0240630    0.0000000      0.4521739    0.0000000    0.0000000
    0.0000000   16.0461240    0.0000000      0.2261151    0.3915703    0.0000000
    0.0000000    0.0000000  944.8630670      0.0000000    0.0000000    0.0066498

 DISK SPACE FOR EIGENVECTORS (FTN 10)    48024900 REALS

 SYMMETRY ADAPTION OF THE BLOCH FUNCTIONS DISABLED
 TTTTTTTTTTTTTTTTTTTTTTTTTTTTTT gordsh1     TELAPSE        2.58 TCPU        0.77

 MATRIX SIZE: P(G) 5309601, F(G)  510252, P(G) IRR 2663195, F(G) IRR  512798
 MAX G-VECTOR INDEX FOR 1- AND 2-ELECTRON INTEGRALS  31

 TTTTTTTTTTTTTTTTTTTTTTTTTTTTTT INPUT       TELAPSE        2.78 TCPU        0.97

 NEIGHBORS OF THE NON-EQUIVALENT ATOMS

 N = NUMBER OF NEIGHBORS AT DISTANCE R
    ATOM  N     R/ANG      R/AU   NEIGHBORS (ATOM LABELS AND CELL INDICES)
   1 C    1     1.4151     2.6742   26 C    0 0 0
   1 C    1     1.4151     2.6742   11 C    0 0 0
   1 C    1     1.4152     2.6744    7 C    0 0 0
   1 C    1     2.4510     4.6318    5 C    0 0 0
   1 C    1     2.4511     4.6319   32 C    0 0 0
   1 C    1     2.4511     4.6319   50 C    0 1 0

   2 C    1     1.4132     2.6705    4 C    0 0 0
   2 C    1     1.4137     2.6714   49 C    0 0 0
   2 C    1     1.4140     2.6720   12 C    0 0 0
   2 C    1     2.4479     4.6259   65 C    1 1 0
   2 C    1     2.4495     4.6289   10 C    0 0 0
   2 C    1     2.4498     4.6295   51 C    1 1 0

   3 C    1     1.4151     2.6742   24 C    0 0 0
   3 C    1     1.4152     2.6743   46 C    0 0 0
   3 C    1     1.4152     2.6743    9 C    0 0 0
   3 C    1     2.4511     4.6318   48 C    0 0 0
   3 C    1     2.4511     4.6319   30 C    1 1 0
   3 C    1     2.4511     4.6319   34 C    1 0 0

   4 C    1     1.4132     2.6705    2 C    0 0 0
   4 C    1     1.4153     2.6745   33 C    0 0 0
   4 C    1     1.4154     2.6747    6 C    0 0 0
   4 C    1     2.4478     4.6257   49 C    0 0 0
   4 C    1     2.4479     4.6259   12 C    0 0 0
   4 C    1     2.4504     4.6306    8 C    0 0 0

   5 C    1     1.4151     2.6742   11 C    0 0 0
   5 C    1     1.4152     2.6743   30 C    1 1 0
   5 C    1     1.4152     2.6743   44 C    1 1 0
   5 C    1     2.4510     4.6317   68 C    1 1 0
   5 C    1     2.4510     4.6318    1 C    0 0 0
   5 C    1     2.4511     4.6318    9 C    0 0 0

   6 C    1     1.4147     2.6734    8 C    0 0 0
   6 C    1     1.4148     2.6737   71 C    0 0 0
   6 C    1     1.4154     2.6747    4 C    0 0 0
   6 C    1     2.4498     4.6294   43 C    0 0 0
   6 C    1     2.4498     4.6295   10 C    0 0 0
   6 C    1     2.4500     4.6298   33 C    0 0 0

   7 C    1     1.4151     2.6742   50 C    0 1 0
   7 C    1     1.4152     2.6743   28 C    0 1 0
   7 C    1     1.4152     2.6744    1 C    0 0 0
   7 C    1     2.4510     4.6318   44 C    1 1 0
   7 C    1     2.4511     4.6319   34 C    0 0 0
   7 C    1     2.4511     4.6319   26 C    0 0 0

   8 C    1     1.4143     2.6726   43 C    0 0 0
   8 C    1     1.4147     2.6734    6 C    0 0 0
   8 C    1     1.4149     2.6737   10 C    0 0 0
   8 C    1     2.4485     4.6269   27 C    1 0 0
   8 C    1     2.4498     4.6294   12 C    0 0 0
   8 C    1     2.4504     4.6306    4 C    0 0 0

   9 C    1     1.4151     2.6742   48 C    0 0 0
   9 C    1     1.4152     2.6743   11 C    0 0 0
   9 C    1     1.4152     2.6743    3 C    0 0 0
   9 C    1     2.4511     4.6318    5 C    0 0 0
   9 C    1     2.4511     4.6319   24 C    0 0 0
   9 C    1     2.4511     4.6319   64 C    0 0 0

  10 C    1     1.4137     2.6714   12 C    0 0 0
  10 C    1     1.4140     2.6720   27 C    1 0 0
  10 C    1     1.4149     2.6737    8 C    0 0 0
  10 C    1     2.4478     4.6257   65 C    1 1 0
  10 C    1     2.4495     4.6289    2 C    0 0 0
  10 C    1     2.4498     4.6295    6 C    0 0 0

  11 C    1     1.4151     2.6742    5 C    0 0 0
  11 C    1     1.4151     2.6742    1 C    0 0 0
  11 C    1     1.4152     2.6743    9 C    0 0 0
  11 C    1     2.4511     4.6318   30 C    1 1 0
  11 C    1     2.4511     4.6319   44 C    1 1 0
  11 C    1     2.4511     4.6319   26 C    0 0 0

  12 C    1     1.4132     2.6705   65 C    1 1 0
  12 C    1     1.4137     2.6714   10 C    0 0 0
  12 C    1     1.4140     2.6720    2 C    0 0 0
  12 C    1     2.4479     4.6259    4 C    0 0 0
  12 C    1     2.4495     4.6289   49 C    0 0 0
  12 C    1     2.4498     4.6294    8 C    0 0 0

  13 B    1     1.3977     2.6412   16 F    0 0 0
  13 B    1     1.3977     2.6412   15 F    0 0 0
  13 B    1     1.3994     2.6446   17 F    0 0 0
  13 B    1     1.3995     2.6446   14 F    0 0 0
  13 B    1     3.4386     6.4979   22 C    0 0 0
  13 B    1     3.4424     6.5052   23 C    0 0 0

  14 F    1     1.3995     2.6446   13 B    0 0 0
  14 F    1     2.2734     4.2960   15 F    0 0 0
  14 F    1     2.2828     4.3138   16 F    0 0 0
  14 F    1     2.2952     4.3373   17 F    0 0 0
  14 F    1     2.7993     5.2899   20 C    0 0 0
  14 F    1     2.8322     5.3520   23 C    0 0 0

  15 F    1     1.3977     2.6412   13 B    0 0 0
  15 F    1     2.2734     4.2960   14 F    0 0 0
  15 F    1     2.2827     4.3138   17 F    0 0 0
  15 F    1     2.2955     4.3379   16 F    0 0 0
  15 F    1     2.8123     5.3144   10 C    0 0 0
  15 F    1     2.8432     5.3729   12 C    0 0 0

  16 F    1     1.3977     2.6412   13 B    0 0 0
  16 F    1     2.2734     4.2961   17 F    0 0 0
  16 F    1     2.2828     4.3138   14 F    0 0 0
  16 F    1     2.2955     4.3379   15 F    0 0 0
  16 F    1     2.8110     5.3120   49 C    0 0 0
  16 F    1     2.8413     5.3693    2 C    0 0 0

  17 F    1     1.3994     2.6446   13 B    0 0 0
  17 F    1     2.2734     4.2961   16 F    0 0 0
  17 F    1     2.2827     4.3138   15 F    0 0 0
  17 F    1     2.2952     4.3373   14 F    0 0 0
  17 F    1     2.8035     5.2979   39 C    0 0 0
  17 F    1     2.8265     5.3413   22 C    0 0 0

  18 C    1     1.4147     2.6735   77 C    0 0 0
  18 C    1     1.4147     2.6735   21 C    0 0 0
  18 C    1     1.4153     2.6746   19 C    0 0 0
  18 C    1     2.4497     4.6293   40 C    0 0 0
  18 C    1     2.4499     4.6296   56 C    0 0 0
  18 C    1     2.4501     4.6300   20 C    0 0 0

  19 C    1     1.4130     2.6702   22 C    0 0 0
  19 C    1     1.4153     2.6746   18 C    0 0 0
  19 C    1     1.4154     2.6747   56 C    0 0 0
  19 C    1     2.4478     4.6256   23 C    0 0 0
  19 C    1     2.4478     4.6257   39 C    0 0 0
  19 C    1     2.4501     4.6301   21 C    0 0 0

  20 C    1     1.4137     2.6715   23 C    0 0 0
  20 C    1     1.4139     2.6720   55 C    0 1 0
  20 C    1     1.4149     2.6737   21 C    0 0 0
  20 C    1     2.4476     4.6253   72 C    1 1 0
  20 C    1     2.4496     4.6291   22 C    0 0 0
  20 C    1     2.4501     4.6300   18 C    0 0 0

  21 C    1     1.4143     2.6727   40 C    0 0 0
  21 C    1     1.4147     2.6735   18 C    0 0 0
  21 C    1     1.4149     2.6737   20 C    0 0 0
  21 C    1     2.4485     4.6270   55 C    0 1 0
  21 C    1     2.4496     4.6291   23 C    0 0 0
  21 C    1     2.4501     4.6301   19 C    0 0 0

  22 C    1     1.4130     2.6702   19 C    0 0 0
  22 C    1     1.4135     2.6711   39 C    0 0 0
  22 C    1     1.4140     2.6721   23 C    0 0 0
  22 C    1     2.4481     4.6263   72 C    1 1 0
  22 C    1     2.4496     4.6291   20 C    0 0 0
  22 C    1     2.4498     4.6294   36 C    0 0 0

  23 C    1     1.4133     2.6707   72 C    1 1 0
  23 C    1     1.4137     2.6715   20 C    0 0 0
  23 C    1     1.4140     2.6721   22 C    0 0 0
  23 C    1     2.4478     4.6256   19 C    0 0 0
  23 C    1     2.4492     4.6284   39 C    0 0 0
  23 C    1     2.4496     4.6291   21 C    0 0 0

  24 C    1     1.4151     2.6742    3 C    0 0 0
  24 C    1     1.4152     2.6743   30 C    1 1 0
  24 C    1     1.4152     2.6743   34 C    1 0 0
  24 C    1     2.4510     4.6318   68 C    1 1 0
  24 C    1     2.4511     4.6318   46 C    0 0 0
  24 C    1     2.4511     4.6319    9 C    0 0 0

  25 C    1     1.4156     2.6750   35 C    0 0 0
  25 C    1     1.4160     2.6758   67 C    0 1 0
  25 C    1     1.4160     2.6759   27 C    0 0 0
  25 C    1     2.4508     4.6314   10 C   -1 0 0
  25 C    1     2.4511     4.6319   29 C    0 0 0
  25 C    1     2.4511     4.6320   69 C    0 1 0

  26 C    1     1.4151     2.6742    1 C    0 0 0
  26 C    1     1.4152     2.6743   32 C    0 0 0
  26 C    1     1.4152     2.6743   64 C    0 0 0
  26 C    1     2.4511     4.6318   66 C    0 0 0
  26 C    1     2.4511     4.6319   11 C    0 0 0
  26 C    1     2.4511     4.6319    7 C    0 0 0

  27 C    1     1.4140     2.6720   10 C   -1 0 0
  27 C    1     1.4160     2.6759   25 C    0 0 0
  27 C    1     1.4160     2.6759   29 C    0 0 0
  27 C    1     2.4485     4.6269    8 C   -1 0 0
  27 C    1     2.4500     4.6298   12 C   -1 0 0
  27 C    1     2.4511     4.6319   67 C    0 1 0

  28 C    1     1.4151     2.6742   34 C    0-1 0
  28 C    1     1.4152     2.6743    7 C    0-1 0
  28 C    1     1.4152     2.6744   62 C    0 0 0
  28 C    1     2.4511     4.6318   50 C    0 0 0
  28 C    1     2.4511     4.6319   32 C    0-1 0
  28 C    1     2.4511     4.6319   24 C   -1-1 0

  29 C    1     1.4156     2.6751   31 C    0 0 0
  29 C    1     1.4159     2.6756   53 C    0 0 0
  29 C    1     1.4160     2.6759   27 C    0 0 0
  29 C    1     2.4504     4.6307   43 C   -1 0 0
  29 C    1     2.4511     4.6319   25 C    0 0 0
  29 C    1     2.4517     4.6330   61 C    0 0 0

  30 C    1     1.4151     2.6741   68 C    0 0 0
  30 C    1     1.4152     2.6743    5 C   -1-1 0
  30 C    1     1.4152     2.6743   24 C   -1-1 0
  30 C    1     2.4511     4.6318   11 C   -1-1 0
  30 C    1     2.4511     4.6318   62 C    0 0 0
  30 C    1     2.4511     4.6318   70 C    0 0 0

  31 C    1     1.4156     2.6751   29 C    0 0 0
  31 C    1     1.4160     2.6758   33 C    0 0 0
  31 C    1     1.4162     2.6761   61 C    0 0 0
  31 C    1     2.4511     4.6319   71 C    0 0 0
  31 C    1     2.4511     4.6320   35 C    0 0 0
  31 C    1     2.4514     4.6325   53 C    0 0 0

  32 C    1     1.4151     2.6742   66 C    0 0 0
  32 C    1     1.4152     2.6743   26 C    0 0 0
  32 C    1     1.4152     2.6743   34 C    0 0 0
  32 C    1     2.4511     4.6319   28 C    0 1 0
  32 C    1     2.4511     4.6319   46 C   -1 0 0
  32 C    1     2.4511     4.6319    1 C    0 0 0

  33 C    1     1.4153     2.6745    4 C    0 0 0
  33 C    1     1.4160     2.6758   35 C    0 0 0
  33 C    1     1.4160     2.6758   31 C    0 0 0
  33 C    1     2.4500     4.6298    6 C    0 0 0
  33 C    1     2.4502     4.6303    2 C    0 0 0
  33 C    1     2.4511     4.6319   47 C    0 0 0

  34 C    1     1.4151     2.6742   28 C    0 1 0
  34 C    1     1.4152     2.6743   24 C   -1 0 0
  34 C    1     1.4152     2.6743   32 C    0 0 0
  34 C    1     2.4511     4.6318   62 C    0 1 0
  34 C    1     2.4511     4.6319    7 C    0 0 0
  34 C    1     2.4511     4.6319    3 C   -1 0 0

  35 C    1     1.4156     2.6750   25 C    0 0 0
  35 C    1     1.4160     2.6758   33 C    0 0 0
  35 C    1     1.4160     2.6759   47 C    0 0 0
  35 C    1     2.4508     4.6314   49 C    0 0 0
  35 C    1     2.4511     4.6319   45 C    0 1 0
  35 C    1     2.4511     4.6320   31 C    0 0 0

  36 C    1     1.4141     2.6723   39 C    0 0 0
  36 C    1     1.4161     2.6760   37 C    1 0 0
  36 C    1     1.4161     2.6760   59 C    0 0 0
  36 C    1     2.4484     4.6268   38 C    1 1 0
  36 C    1     2.4498     4.6294   22 C    0 0 0
  36 C    1     2.4511     4.6320   56 C    0 0 0

  37 C    1     1.4157     2.6752   74 C    0 0 0
  37 C    1     1.4159     2.6757   40 C    0 0 0
  37 C    1     1.4161     2.6760   36 C   -1 0 0
  37 C    1     2.4505     4.6308   41 C    0 1 0
  37 C    1     2.4512     4.6320   59 C   -1 0 0
  37 C    1     2.4516     4.6328   77 C    0 0 0

  38 C    1     1.4141     2.6723   41 C    0 0 0
  38 C    1     1.4147     2.6735   73 C    0 0 0
  38 C    1     1.4148     2.6736   39 C   -1-1 0
  38 C    1     2.4484     4.6268   36 C   -1-1 0
  38 C    1     2.4499     4.6296   22 C   -1-1 0
  38 C    1     2.4506     4.6309   76 C    0 0 0

  39 C    1     1.4135     2.6711   22 C    0 0 0
  39 C    1     1.4141     2.6723   36 C    0 0 0
  39 C    1     1.4148     2.6736   38 C    1 1 0
  39 C    1     2.4478     4.6257   19 C    0 0 0
  39 C    1     2.4492     4.6284   23 C    0 0 0
  39 C    1     2.4496     4.6290   73 C    1 1 0

  40 C    1     1.4143     2.6727   21 C    0 0 0
  40 C    1     1.4159     2.6757   37 C    0 0 0
  40 C    1     1.4165     2.6767   41 C    0 1 0
  40 C    1     2.4497     4.6293   18 C    0 0 0
  40 C    1     2.4504     4.6307   54 C    0 1 0
  40 C    1     2.4509     4.6316   20 C    0 0 0

  41 C    1     1.4141     2.6723   38 C    0 0 0
  41 C    1     1.4159     2.6756   54 C    0 0 0
  41 C    1     1.4165     2.6767   40 C    0-1 0
  41 C    1     2.4498     4.6294   73 C    0 0 0
  41 C    1     2.4505     4.6308   37 C    0-1 0
  41 C    1     2.4509     4.6316   39 C   -1-1 0

  42 C    1     1.4151     2.6742   62 C    0 0 0
  42 C    1     1.4152     2.6743   52 C    0 0 0
  42 C    1     1.4152     2.6744   48 C    0 0 0
  42 C    1     2.4511     4.6319   46 C    0 0 0
  42 C    1     2.4511     4.6319   68 C    0 0 0
  42 C    1     2.4511     4.6319   28 C    0 0 0

  43 C    1     1.4143     2.6726    8 C    0 0 0
  43 C    1     1.4159     2.6757   45 C    0 0 0
  43 C    1     1.4164     2.6766   53 C    1 0 0
  43 C    1     2.4498     4.6294    6 C    0 0 0
  43 C    1     2.4504     4.6307   29 C    1 0 0
  43 C    1     2.4510     4.6316   10 C    0 0 0

  44 C    1     1.4151     2.6741   60 C    0 0 0
  44 C    1     1.4152     2.6743   50 C   -1 0 0
  44 C    1     1.4152     2.6743    5 C   -1-1 0
  44 C    1     2.4510     4.6318    7 C   -1-1 0
  44 C    1     2.4510     4.6318   70 C    0 0 0
  44 C    1     2.4511     4.6319   11 C   -1-1 0

  45 C    1     1.4156     2.6751   69 C    0 0 0
  45 C    1     1.4159     2.6757   43 C    0 0 0
  45 C    1     1.4160     2.6759   47 C    0-1 0
  45 C    1     2.4504     4.6306   53 C    1 0 0
  45 C    1     2.4511     4.6319   35 C    0-1 0
  45 C    1     2.4517     4.6330   71 C    0 0 0

  46 C    1     1.4151     2.6742   52 C    0 0 0
  46 C    1     1.4152     2.6743    3 C    0 0 0
  46 C    1     1.4152     2.6744   66 C    1 0 0
  46 C    1     2.4511     4.6318   24 C    0 0 0
  46 C    1     2.4511     4.6319   42 C    0 0 0
  46 C    1     2.4511     4.6319   32 C    1 0 0

  47 C    1     1.4140     2.6720   49 C    0 0 0
  47 C    1     1.4160     2.6759   35 C    0 0 0
  47 C    1     1.4160     2.6759   45 C    0 1 0
  47 C    1     2.4484     4.6269   51 C    1 1 0
  47 C    1     2.4500     4.6297    2 C    0 0 0
  47 C    1     2.4511     4.6319   33 C    0 0 0

  48 C    1     1.4151     2.6742    9 C    0 0 0
  48 C    1     1.4152     2.6743   64 C    0 0 0
  48 C    1     1.4152     2.6744   42 C    0 0 0
  48 C    1     2.4511     4.6318    3 C    0 0 0
  48 C    1     2.4511     4.6319   11 C    0 0 0
  48 C    1     2.4511     4.6319   70 C    0 0 0

  49 C    1     1.4137     2.6714    2 C    0 0 0
  49 C    1     1.4140     2.6720   47 C    0 0 0
  49 C    1     1.4148     2.6737   51 C    1 1 0
  49 C    1     2.4478     4.6257    4 C    0 0 0
  49 C    1     2.4495     4.6289   12 C    0 0 0
  49 C    1     2.4498     4.6295   63 C    1 1 0

  50 C    1     1.4151     2.6742    7 C    0-1 0
  50 C    1     1.4152     2.6743   44 C    1 0 0
  50 C    1     1.4152     2.6744   52 C    0 0 0
  50 C    1     2.4510     4.6317   60 C    1 0 0
  50 C    1     2.4511     4.6318   28 C    0 0 0
  50 C    1     2.4511     4.6319    1 C    0-1 0

  51 C    1     1.4143     2.6726   53 C    0 0 0
  51 C    1     1.4147     2.6734   63 C    0 0 0
  51 C    1     1.4148     2.6737   49 C   -1-1 0
  51 C    1     2.4484     4.6269   47 C   -1-1 0
  51 C    1     2.4498     4.6295    2 C   -1-1 0
  51 C    1     2.4504     4.6306   65 C    0 0 0

  52 C    1     1.4151     2.6742   46 C    0 0 0
  52 C    1     1.4152     2.6743   42 C    0 0 0
  52 C    1     1.4152     2.6744   50 C    0 0 0
  52 C    1     2.4510     4.6318   66 C    1 0 0
  52 C    1     2.4511     4.6319   62 C    0 0 0
  52 C    1     2.4511     4.6319    3 C    0 0 0

  53 C    1     1.4143     2.6726   51 C    0 0 0
  53 C    1     1.4159     2.6756   29 C    0 0 0
  53 C    1     1.4164     2.6766   43 C   -1 0 0
  53 C    1     2.4498     4.6294   63 C    0 0 0
  53 C    1     2.4504     4.6306   45 C   -1 0 0
  53 C    1     2.4510     4.6317   49 C   -1-1 0

  54 C    1     1.4157     2.6752   57 C    0 0 0
  54 C    1     1.4159     2.6756   41 C    0 0 0
  54 C    1     1.4160     2.6759   55 C    0 0 0
  54 C    1     2.4504     4.6307   40 C    0-1 0
  54 C    1     2.4511     4.6319   58 C    0 0 0
  54 C    1     2.4517     4.6331   76 C    0 0 0

  55 C    1     1.4139     2.6720   20 C    0-1 0
  55 C    1     1.4160     2.6759   58 C    0 0 0
  55 C    1     1.4160     2.6759   54 C    0 0 0
  55 C    1     2.4485     4.6270   21 C    0-1 0
  55 C    1     2.4501     4.6299   23 C    0-1 0
  55 C    1     2.4510     4.6318   75 C    1 0 0

  56 C    1     1.4154     2.6747   19 C    0 0 0
  56 C    1     1.4159     2.6758   59 C    0 0 0
  56 C    1     1.4160     2.6759   57 C    0 0 0
  56 C    1     2.4499     4.6296   18 C    0 0 0
  56 C    1     2.4501     4.6300   22 C    0 0 0
  56 C    1     2.4511     4.6320   36 C    0 0 0

  57 C    1     1.4157     2.6752   54 C    0 0 0
  57 C    1     1.4160     2.6759   56 C    0 0 0
  57 C    1     1.4161     2.6761   76 C    0 0 0
  57 C    1     2.4511     4.6319   77 C    0 0 0
  57 C    1     2.4511     4.6319   59 C    0 0 0
  57 C    1     2.4514     4.6325   41 C    0 0 0

  58 C    1     1.4156     2.6752   59 C    0 0 0
  58 C    1     1.4159     2.6757   75 C    1 0 0
  58 C    1     1.4160     2.6759   55 C    0 0 0
  58 C    1     2.4508     4.6313   20 C    0-1 0
  58 C    1     2.4511     4.6319   74 C    1 0 0
  58 C    1     2.4511     4.6319   54 C    0 0 0

  59 C    1     1.4156     2.6752   58 C    0 0 0
  59 C    1     1.4159     2.6758   56 C    0 0 0
  59 C    1     1.4161     2.6760   36 C    0 0 0
  59 C    1     2.4510     4.6317   39 C    0 0 0
  59 C    1     2.4511     4.6319   57 C    0 0 0
  59 C    1     2.4512     4.6320   37 C    1 0 0

  60 C    1     1.4151     2.6741   44 C    0 0 0
  60 C    1     1.4152     2.6743   70 C    0 0 0
  60 C    1     1.4152     2.6744   66 C    0 0 0
  60 C    1     2.4510     4.6317   50 C   -1 0 0
  60 C    1     2.4511     4.6318   64 C    0 0 0
  60 C    1     2.4511     4.6319    5 C   -1-1 0

  61 C    1     1.4149     2.6737   63 C    0 0 0
  61 C    1     1.4162     2.6761   31 C    0 0 0
  61 C    1     1.4166     2.6770   71 C    0 0 0
  61 C    1     2.4506     4.6309   51 C    0 0 0
  61 C    1     2.4511     4.6319   69 C    0 0 0
  61 C    1     2.4515     4.6326   65 C    0 0 0

  62 C    1     1.4151     2.6742   42 C    0 0 0
  62 C    1     1.4152     2.6744   68 C    0 0 0
  62 C    1     1.4152     2.6744   28 C    0 0 0
  62 C    1     2.4511     4.6318   30 C    0 0 0
  62 C    1     2.4511     4.6318   34 C    0-1 0
  62 C    1     2.4511     4.6319   52 C    0 0 0

  63 C    1     1.4147     2.6734   51 C    0 0 0
  63 C    1     1.4149     2.6737   61 C    0 0 0
  63 C    1     1.4154     2.6747   65 C    0 0 0
  63 C    1     2.4498     4.6294   53 C    0 0 0
  63 C    1     2.4498     4.6295   49 C   -1-1 0
  63 C    1     2.4500     4.6299   67 C    0 0 0

  64 C    1     1.4151     2.6741   70 C    0 0 0
  64 C    1     1.4152     2.6743   48 C    0 0 0
  64 C    1     1.4152     2.6743   26 C    0 0 0
  64 C    1     2.4511     4.6318   60 C    0 0 0
  64 C    1     2.4511     4.6319    9 C    0 0 0
  64 C    1     2.4511     4.6319   68 C    0 0 0

  65 C    1     1.4132     2.6705   12 C   -1-1 0
  65 C    1     1.4153     2.6745   67 C    0 0 0
  65 C    1     1.4154     2.6747   63 C    0 0 0
  65 C    1     2.4478     4.6257   10 C   -1-1 0
  65 C    1     2.4479     4.6259    2 C   -1-1 0
  65 C    1     2.4504     4.6306   51 C    0 0 0

  66 C    1     1.4151     2.6742   32 C    0 0 0
  66 C    1     1.4152     2.6744   46 C   -1 0 0
  66 C    1     1.4152     2.6744   60 C    0 0 0
  66 C    1     2.4510     4.6318   52 C   -1 0 0
  66 C    1     2.4511     4.6318   26 C    0 0 0
  66 C    1     2.4511     4.6319   34 C    0 0 0

  67 C    1     1.4153     2.6745   65 C    0 0 0
  67 C    1     1.4160     2.6758   25 C    0-1 0
  67 C    1     1.4160     2.6758   69 C    0 0 0
  67 C    1     2.4500     4.6299   63 C    0 0 0
  67 C    1     2.4502     4.6303   12 C   -1-1 0
  67 C    1     2.4511     4.6319   27 C    0-1 0

  68 C    1     1.4151     2.6741   30 C    0 0 0
  68 C    1     1.4152     2.6744   62 C    0 0 0
  68 C    1     1.4152     2.6744   70 C    0 0 0
  68 C    1     2.4510     4.6317    5 C   -1-1 0
  68 C    1     2.4510     4.6318   24 C   -1-1 0
  68 C    1     2.4511     4.6319   42 C    0 0 0

  69 C    1     1.4156     2.6751   45 C    0 0 0
  69 C    1     1.4160     2.6758   67 C    0 0 0
  69 C    1     1.4162     2.6761   71 C    0 0 0
  69 C    1     2.4511     4.6319   61 C    0 0 0
  69 C    1     2.4511     4.6320   25 C    0-1 0
  69 C    1     2.4514     4.6324   43 C    0 0 0

  70 C    1     1.4151     2.6741   64 C    0 0 0
  70 C    1     1.4152     2.6743   60 C    0 0 0
  70 C    1     1.4152     2.6744   68 C    0 0 0
  70 C    1     2.4510     4.6318   44 C    0 0 0
  70 C    1     2.4511     4.6318   30 C    0 0 0
  70 C    1     2.4511     4.6319   48 C    0 0 0

  71 C    1     1.4148     2.6737    6 C    0 0 0
  71 C    1     1.4162     2.6761   69 C    0 0 0
  71 C    1     1.4166     2.6770   61 C    0 0 0
  71 C    1     2.4506     4.6309    8 C    0 0 0
  71 C    1     2.4511     4.6319   31 C    0 0 0
  71 C    1     2.4515     4.6326    4 C    0 0 0

  72 C    1     1.4133     2.6707   23 C   -1-1 0
  72 C    1     1.4152     2.6744   75 C    0 0 0
  72 C    1     1.4154     2.6747   73 C    0 0 0
  72 C    1     2.4476     4.6253   20 C   -1-1 0
  72 C    1     2.4481     4.6263   22 C   -1-1 0
  72 C    1     2.4506     4.6310   38 C    0 0 0

  73 C    1     1.4147     2.6735   38 C    0 0 0
  73 C    1     1.4149     2.6738   76 C    0 0 0
  73 C    1     1.4154     2.6747   72 C    0 0 0
  73 C    1     2.4496     4.6290   39 C   -1-1 0
  73 C    1     2.4498     4.6294   41 C    0 0 0
  73 C    1     2.4500     4.6298   75 C    0 0 0

  74 C    1     1.4157     2.6752   37 C    0 0 0
  74 C    1     1.4160     2.6758   75 C    0 0 0
  74 C    1     1.4161     2.6760   77 C    0 0 0
  74 C    1     2.4510     4.6318   76 C    0 0 0
  74 C    1     2.4511     4.6319   58 C   -1 0 0
  74 C    1     2.4515     4.6327   40 C    0 0 0

  75 C    1     1.4152     2.6744   72 C    0 0 0
  75 C    1     1.4159     2.6757   58 C   -1 0 0
  75 C    1     1.4160     2.6758   74 C    0 0 0
  75 C    1     2.4500     4.6298   73 C    0 0 0
  75 C    1     2.4504     4.6306   23 C   -1-1 0
  75 C    1     2.4510     4.6318   55 C   -1 0 0

  76 C    1     1.4149     2.6738   73 C    0 0 0
  76 C    1     1.4161     2.6761   57 C    0 0 0
  76 C    1     1.4167     2.6771   77 C    0 0 0
  76 C    1     2.4506     4.6309   38 C    0 0 0
  76 C    1     2.4510     4.6318   74 C    0 0 0
  76 C    1     2.4514     4.6325   72 C    0 0 0

  77 C    1     1.4147     2.6735   18 C    0 0 0
  77 C    1     1.4161     2.6760   74 C    0 0 0
  77 C    1     1.4167     2.6771   76 C    0 0 0
  77 C    1     2.4506     4.6309   21 C    0 0 0
  77 C    1     2.4511     4.6319   57 C    0 0 0
  77 C    1     2.4514     4.6325   19 C    0 0 0


 SYMMETRY ALLOWED INTERNAL DEGREE(S) OF FREEDOM: 228
 TTTTTTTTTTTTTTTTTTTTTTTTTTTTTT SYMM        TELAPSE        2.82 TCPU        0.99
 TTTTTTTTTTTTTTTTTTTTTTTTTTTTTT INT_SCREEN  TELAPSE        2.89 TCPU        1.05

 *******************************************************************************
 *                                                                             *
 *                                                                             *
 *         FFFFF  RRRR   EEEE   QQQ   U   U  EEEE  N   N   CCC  Y   Y          *
 *         F      R   R  E     Q   Q  U   U  E     NN  N  C      Y Y           *
 *         FFF    RRRR   EEEE  Q   Q  U   U  EEEE  N N N  C       Y            *
 *         F      R   R  E     Q  QQ  U   U  E     N  NN  C       Y            *
 *         F      R   R  EEEE   QQ Q   UUU   EEEE  N   N   CCC    Y            *
 *                                                                             *
 *                                                                             *
 * CALCULATION OF PHONON FREQUENCIES AT THE GAMMA POINT.                       *
 *                                                                             *
 * SYMMETRY IS EXPLOITED TO BUILD THE TOTAL HESSIAN MATRIX.                    *
 * (F. PASCALE PHD THESIS TURIN-PARIS 2002)                                    *
 *                                                                             *
 *******************************************************************************


 * INTENSITIES COMPUTED VIA THE CPHF ANALYTICAL APPROACH                       *
 *                                                                             *
 * REFERENCES TO BE QUOTED WHEN USING THIS MODULE:                             *
 *                                                                             *
 * F. Pascale, C.M. Zicovich-Wilson, F. Lopez, B. Civalleri                    *
 * R. Orlando, R. Dovesi                                                       *
 * The calculation of the vibration frequencies of crystalline                 *
 * compounds and its implementation in the CRYSTAL code                        *
 * J. Comput. Chem. 25 (2004) 888-897                                          *
 *                                                                             *
 * C.M. Zicovich-Wilson, F. Pascale, C. Roetti, V.R. Saunders,                 *
 * R. Orlando, R. Dovesi                                                       *
 * The calculation of the vibration frequencies of alpha-quartz:               *
 * the effect of hamiltonian and basis set                                     *
 * J. Comput. Chem. 25 (2004) 1873-1881                                        *
 *******************************************************************************


 *                                                                             *
 * FOR THE ANALYTICAL IR INTENSITIES MODULE PLEASE CITE:                       *
 *                                                                             *
 * L. Maschio, B. Kirtman, R. Orlando, M. Rerat,                               *
 * Ab initio analytical infrared intensities for periodic systems              *
 * through a coupled perturbed Hartree-Fock/Kohn-Sham method                   *
 * J. Chem. Phys. 137, 204113 (2012)                                           *
 *******************************************************************************



 ATOMS ISOTOPIC MASS (AMU) FOR FREQUENCY CALCULATION 

    1 C      12.0000    2 C      12.0000    3 C      12.0000    4 C      12.0000
    5 C      12.0000    6 C      12.0000    7 C      12.0000    8 C      12.0000
    9 C      12.0000   10 C      12.0000   11 C      12.0000   12 C      12.0000
   13 B      11.0093   14 F      18.9984   15 F      18.9984   16 F      18.9984
   17 F      18.9984   18 C      12.0000   19 C      12.0000   20 C      12.0000
   21 C      12.0000   22 C      12.0000   23 C      12.0000   24 C      12.0000
   25 C      12.0000   26 C      12.0000   27 C      12.0000   28 C      12.0000
   29 C      12.0000   30 C      12.0000   31 C      12.0000   32 C      12.0000
   33 C      12.0000   34 C      12.0000   35 C      12.0000   36 C      12.0000
   37 C      12.0000   38 C      12.0000   39 C      12.0000   40 C      12.0000
   41 C      12.0000   42 C      12.0000   43 C      12.0000   44 C      12.0000
   45 C      12.0000   46 C      12.0000   47 C      12.0000   48 C      12.0000
   49 C      12.0000   50 C      12.0000   51 C      12.0000   52 C      12.0000
   53 C      12.0000   54 C      12.0000   55 C      12.0000   56 C      12.0000
   57 C      12.0000   58 C      12.0000   59 C      12.0000   60 C      12.0000
   61 C      12.0000   62 C      12.0000   63 C      12.0000   64 C      12.0000
   65 C      12.0000   66 C      12.0000   67 C      12.0000   68 C      12.0000
   69 C      12.0000   70 C      12.0000   71 C      12.0000   72 C      12.0000
   73 C      12.0000   74 C      12.0000   75 C      12.0000   76 C      12.0000
   77 C      12.0000

 INFORMATION CONCERNING THE SCF+GRADIENT CALCULATIONS REQUIRED FOR
 GENERATING FREQUENCIES. IN PRINCIPLE 3N+1 SCF + GRADIENT
 CALCULATIONS  ARE REQUIRED;
 FOR EACH OF THEM THE REMAINING POINT SYMMETRY IS INDICATED.
 POINT SYMMETRY PERMITS TO GENERATE GRADIENTS FOR DISPLACEMENT B 
 STARTING FROM THE GRADIENT GENERATED BY DISPLACEMENT A.

   N   LABEL SYMBOL DISPLACEMENT     SYM. 

   1     EQUILIBRIUM GEOMETRY            1

   2      1   C            DX        GENERATED BY TRANSLATIONAL INVARIANCE
   3      1   C            DY        GENERATED BY TRANSLATIONAL INVARIANCE
   4      1   C            DZ        GENERATED BY TRANSLATIONAL INVARIANCE
   5      2   C            DX           1
   6      2   C            DY           1
   7      2   C            DZ           1
   8      3   C            DX           1
   9      3   C            DY           1
  10      3   C            DZ           1
  11      4   C            DX           1
  12      4   C            DY           1
  13      4   C            DZ           1
  14      5   C            DX           1
  15      5   C            DY           1
  16      5   C            DZ           1
  17      6   C            DX           1
  18      6   C            DY           1
  19      6   C            DZ           1
  20      7   C            DX           1
  21      7   C            DY           1
  22      7   C            DZ           1
  23      8   C            DX           1
  24      8   C            DY           1
  25      8   C            DZ           1
  26      9   C            DX           1
  27      9   C            DY           1
  28      9   C            DZ           1
  29     10   C            DX           1
  30     10   C            DY           1
  31     10   C            DZ           1
  32     11   C            DX           1
  33     11   C            DY           1
  34     11   C            DZ           1
  35     12   C            DX           1
  36     12   C            DY           1
  37     12   C            DZ           1
  38     13   B            DX           1
  39     13   B            DY           1
  40     13   B            DZ           1
  41     14   F            DX           1
  42     14   F            DY           1
  43     14   F            DZ           1
  44     15   F            DX           1
  45     15   F            DY           1
  46     15   F            DZ           1
  47     16   F            DX           1
  48     16   F            DY           1
  49     16   F            DZ           1
  50     17   F            DX           1
  51     17   F            DY           1
  52     17   F            DZ           1
  53     18   C            DX           1
  54     18   C            DY           1
  55     18   C            DZ           1
  56     19   C            DX           1
  57     19   C            DY           1
  58     19   C            DZ           1
  59     20   C            DX           1
  60     20   C            DY           1
  61     20   C            DZ           1
  62     21   C            DX           1
  63     21   C            DY           1
  64     21   C            DZ           1
  65     22   C            DX           1
  66     22   C            DY           1
  67     22   C            DZ           1
  68     23   C            DX           1
  69     23   C            DY           1
  70     23   C            DZ           1
  71     24   C            DX           1
  72     24   C            DY           1
  73     24   C            DZ           1
  74     25   C            DX           1
  75     25   C            DY           1
  76     25   C            DZ           1
  77     26   C            DX           1
  78     26   C            DY           1
  79     26   C            DZ           1
  80     27   C            DX           1
  81     27   C            DY           1
  82     27   C            DZ           1
  83     28   C            DX           1
  84     28   C            DY           1
  85     28   C            DZ           1
  86     29   C            DX           1
  87     29   C            DY           1
  88     29   C            DZ           1
  89     30   C            DX           1
  90     30   C            DY           1
  91     30   C            DZ           1
  92     31   C            DX           1
  93     31   C            DY           1
  94     31   C            DZ           1
  95     32   C            DX           1
  96     32   C            DY           1
  97     32   C            DZ           1
  98     33   C            DX           1
  99     33   C            DY           1
 100     33   C            DZ           1
 101     34   C            DX           1
 102     34   C            DY           1
 103     34   C            DZ           1
 104     35   C            DX           1
 105     35   C            DY           1
 106     35   C            DZ           1
 107     36   C            DX           1
 108     36   C            DY           1
 109     36   C            DZ           1
 110     37   C            DX           1
 111     37   C            DY           1
 112     37   C            DZ           1
 113     38   C            DX           1
 114     38   C            DY           1
 115     38   C            DZ           1
 116     39   C            DX           1
 117     39   C            DY           1
 118     39   C            DZ           1
 119     40   C            DX           1
 120     40   C            DY           1
 121     40   C            DZ           1
 122     41   C            DX           1
 123     41   C            DY           1
 124     41   C            DZ           1
 125     42   C            DX           1
 126     42   C            DY           1
 127     42   C            DZ           1
 128     43   C            DX           1
 129     43   C            DY           1
 130     43   C            DZ           1
 131     44   C            DX           1
 132     44   C            DY           1
 133     44   C            DZ           1
 134     45   C            DX           1
 135     45   C            DY           1
 136     45   C            DZ           1
 137     46   C            DX           1
 138     46   C            DY           1
 139     46   C            DZ           1
 140     47   C            DX           1
 141     47   C            DY           1
 142     47   C            DZ           1
 143     48   C            DX           1
 144     48   C            DY           1
 145     48   C            DZ           1
 146     49   C            DX           1
 147     49   C            DY           1
 148     49   C            DZ           1
 149     50   C            DX           1
 150     50   C            DY           1
 151     50   C            DZ           1
 152     51   C            DX           1
 153     51   C            DY           1
 154     51   C            DZ           1
 155     52   C            DX           1
 156     52   C            DY           1
 157     52   C            DZ           1
 158     53   C            DX           1
 159     53   C            DY           1
 160     53   C            DZ           1
 161     54   C            DX           1
 162     54   C            DY           1
 163     54   C            DZ           1
 164     55   C            DX           1
 165     55   C            DY           1
 166     55   C            DZ           1
 167     56   C            DX           1
 168     56   C            DY           1
 169     56   C            DZ           1
 170     57   C            DX           1
 171     57   C            DY           1
 172     57   C            DZ           1
 173     58   C            DX           1
 174     58   C            DY           1
 175     58   C            DZ           1
 176     59   C            DX           1
 177     59   C            DY           1
 178     59   C            DZ           1
 179     60   C            DX           1
 180     60   C            DY           1
 181     60   C            DZ           1
 182     61   C            DX           1
 183     61   C            DY           1
 184     61   C            DZ           1
 185     62   C            DX           1
 186     62   C            DY           1
 187     62   C            DZ           1
 188     63   C            DX           1
 189     63   C            DY           1
 190     63   C            DZ           1
 191     64   C            DX           1
 192     64   C            DY           1
 193     64   C            DZ           1
 194     65   C            DX           1
 195     65   C            DY           1
 196     65   C            DZ           1
 197     66   C            DX           1
 198     66   C            DY           1
 199     66   C            DZ           1
 200     67   C            DX           1
 201     67   C            DY           1
 202     67   C            DZ           1
 203     68   C            DX           1
 204     68   C            DY           1
 205     68   C            DZ           1
 206     69   C            DX           1
 207     69   C            DY           1
 208     69   C            DZ           1
 209     70   C            DX           1
 210     70   C            DY           1
[...]
 AT.  64 C  X     0.0022    0.0128   -0.0049    0.0194   -0.0127    0.0000
            Y    -0.0160   -0.0031   -0.0128   -0.0101   -0.0151   -0.0000
            Z     0.0000    0.0000   -0.0000   -0.0000   -0.0000    0.0000
 AT.  65 C  X    -0.0000    0.0000    0.0000    0.0000   -0.0000   -0.0150
            Y    -0.0000    0.0000   -0.0000   -0.0000    0.0000   -0.0020
            Z    -0.0000   -0.0000    0.0000    0.0000   -0.0000   -0.0001
 AT.  66 C  X     0.0195   -0.0032   -0.0086    0.0153    0.0043   -0.0001
            Y     0.0041   -0.0220    0.0149   -0.0014    0.0054    0.0000
            Z    -0.0000   -0.0000   -0.0000   -0.0000    0.0000    0.0000
 AT.  67 C  X     0.0000   -0.0000   -0.0000   -0.0000    0.0000    0.0174
            Y     0.0000   -0.0000    0.0000    0.0000   -0.0000    0.0011
            Z    -0.0000   -0.0000   -0.0000   -0.0000   -0.0000    0.0000
 AT.  68 C  X    -0.0152    0.0074    0.0073    0.0171    0.0037    0.0001
            Y    -0.0100   -0.0188    0.0028    0.0039    0.0114   -0.0001
            Z     0.0000   -0.0000   -0.0000   -0.0000   -0.0000   -0.0000
 AT.  69 C  X    -0.0000    0.0000    0.0000   -0.0000   -0.0000   -0.0180
            Y    -0.0000    0.0000   -0.0000   -0.0000    0.0000   -0.0014
            Z     0.0000   -0.0000    0.0000    0.0000   -0.0000    0.0000
 AT.  70 C  X     0.0133   -0.0153   -0.0085   -0.0136    0.0030   -0.0000
            Y     0.0163    0.0129    0.0159   -0.0035    0.0001    0.0001
            Z    -0.0000   -0.0000    0.0000    0.0000    0.0000    0.0000
 AT.  71 C  X     0.0000   -0.0000   -0.0000    0.0000    0.0000    0.0165
            Y    -0.0000    0.0000    0.0000    0.0000   -0.0000    0.0022
            Z    -0.0000    0.0000    0.0000   -0.0000   -0.0000   -0.0001
 AT.  72 C  X    -0.0007    0.0009    0.0014   -0.0001    0.0014    0.0001
            Y    -0.0005   -0.0017   -0.0006   -0.0001    0.0007    0.0006
            Z     0.0000    0.0000   -0.0000   -0.0000   -0.0000   -0.0000
 AT.  73 C  X     0.0007   -0.0011   -0.0010   -0.0011   -0.0004   -0.0001
            Y     0.0002    0.0018   -0.0009   -0.0006   -0.0010   -0.0005
            Z    -0.0000   -0.0000    0.0000   -0.0000    0.0000    0.0000
 AT.  74 C  X    -0.0011    0.0012    0.0013    0.0006   -0.0001    0.0001
            Y    -0.0006    0.0010   -0.0018   -0.0010   -0.0008    0.0007
            Z     0.0000    0.0000   -0.0000    0.0000   -0.0000   -0.0000
 AT.  75 C  X     0.0015   -0.0006   -0.0012    0.0007   -0.0010   -0.0001
            Y     0.0006   -0.0001    0.0015   -0.0002   -0.0002   -0.0006
            Z    -0.0000   -0.0001   -0.0000   -0.0000    0.0000    0.0000
 AT.  76 C  X     0.0002    0.0006   -0.0006    0.0018   -0.0003    0.0001
            Y    -0.0012   -0.0008    0.0000   -0.0002    0.0005    0.0005
            Z     0.0000   -0.0000   -0.0000   -0.0000   -0.0000   -0.0000
 AT.  77 C  X    -0.0002   -0.0011   -0.0001   -0.0013    0.0009   -0.0001
            Y     0.0009    0.0005    0.0014    0.0009    0.0008   -0.0005
            Z    -0.0000   -0.0000    0.0000    0.0000    0.0000   -0.0000

 FREQ(CM**-1)   1660.82   1676.77   1679.20

 AT.   1 C  X     0.0000    0.0000   -0.0001
            Y    -0.0001    0.0001    0.0001
            Z    -0.0000   -0.0000    0.0000
 AT.   2 C  X    -0.0011    0.0006    0.0003
            Y     0.0161   -0.0004   -0.0005
            Z     0.0000   -0.0000   -0.0000
 AT.   3 C  X    -0.0000   -0.0001    0.0001
            Y     0.0000   -0.0002   -0.0000
            Z    -0.0000   -0.0000    0.0000
 AT.   4 C  X     0.0008   -0.0005   -0.0003
            Y    -0.0158    0.0003    0.0005
            Z    -0.0001    0.0000    0.0000
 AT.   5 C  X     0.0000   -0.0000   -0.0001
            Y    -0.0001    0.0000    0.0001
            Z    -0.0000    0.0000    0.0000
 AT.   6 C  X    -0.0009    0.0005    0.0003
            Y     0.0157   -0.0004   -0.0005
            Z    -0.0001   -0.0000    0.0000
 AT.   7 C  X    -0.0000   -0.0000    0.0001
            Y     0.0000    0.0001   -0.0001
            Z    -0.0000   -0.0000    0.0000
 AT.   8 C  X     0.0006   -0.0005   -0.0003
            Y    -0.0159    0.0004    0.0005
            Z     0.0002   -0.0000   -0.0000
 AT.   9 C  X     0.0000    0.0000   -0.0001
            Y    -0.0000    0.0000    0.0000
            Z    -0.0000    0.0000   -0.0000
 AT.  10 C  X    -0.0008    0.0005    0.0003
            Y     0.0159   -0.0003   -0.0005
            Z    -0.0002    0.0000    0.0000
 AT.  11 C  X    -0.0000    0.0002    0.0001
            Y     0.0000   -0.0001   -0.0001
            Z    -0.0000   -0.0000    0.0000
 AT.  12 C  X     0.0010   -0.0005   -0.0003
            Y    -0.0160    0.0003    0.0005
            Z     0.0000   -0.0000   -0.0000
 AT.  13 B  X     0.0000    0.0000    0.0000
            Y    -0.0000   -0.0000   -0.0000
            Z    -0.0001    0.0001    0.0001
 AT.  14 F  X     0.0000   -0.0000   -0.0000
            Y    -0.0000   -0.0000   -0.0000
            Z     0.0000   -0.0000   -0.0000
 AT.  15 F  X     0.0000    0.0000    0.0000
            Y    -0.0000    0.0000    0.0000
            Z     0.0000   -0.0000   -0.0000
 AT.  16 F  X     0.0000    0.0000    0.0000
            Y     0.0000   -0.0000   -0.0000
            Z     0.0000   -0.0000   -0.0000
 AT.  17 F  X     0.0000    0.0000    0.0000
            Y    -0.0000   -0.0000   -0.0000
            Z     0.0000   -0.0000   -0.0000
 AT.  18 C  X    -0.0002    0.0092   -0.0127
            Y     0.0006    0.0127    0.0091
            Z     0.0000    0.0001   -0.0001
 AT.  19 C  X     0.0001   -0.0095    0.0129
            Y    -0.0006   -0.0126   -0.0091
            Z    -0.0000   -0.0002   -0.0001
 AT.  20 C  X    -0.0001    0.0093   -0.0130
            Y     0.0006    0.0127    0.0092
            Z    -0.0000   -0.0001   -0.0002
 AT.  21 C  X     0.0002   -0.0092    0.0129
            Y    -0.0006   -0.0127   -0.0090
            Z     0.0000    0.0000    0.0002
 AT.  22 C  X    -0.0000    0.0094   -0.0131
            Y     0.0005    0.0126    0.0093
            Z     0.0000    0.0001    0.0001
 AT.  23 C  X     0.0001   -0.0094    0.0130
            Y    -0.0005   -0.0125   -0.0093
            Z     0.0000    0.0001    0.0001
 AT.  24 C  X     0.0000    0.0000   -0.0001
            Y    -0.0001    0.0000    0.0001
            Z    -0.0000   -0.0000    0.0000
 AT.  25 C  X    -0.0016    0.0006    0.0004
            Y     0.0157   -0.0004   -0.0004
            Z    -0.0000    0.0000    0.0000
 AT.  26 C  X    -0.0000   -0.0001    0.0001
            Y     0.0000   -0.0002   -0.0000
            Z    -0.0000   -0.0000    0.0000
 AT.  27 C  X     0.0012   -0.0006   -0.0003
            Y    -0.0157    0.0003    0.0005
            Z     0.0001   -0.0000   -0.0000
 AT.  28 C  X     0.0000    0.0000   -0.0001
            Y    -0.0000    0.0001    0.0001
            Z    -0.0000    0.0000    0.0000
 AT.  29 C  X    -0.0010    0.0005    0.0003
            Y     0.0160   -0.0004   -0.0005
            Z     0.0001   -0.0000   -0.0000
 AT.  30 C  X    -0.0000   -0.0000    0.0001
            Y     0.0000    0.0001   -0.0001
            Z    -0.0000   -0.0000   -0.0000
 AT.  31 C  X     0.0013   -0.0006   -0.0003
            Y    -0.0156    0.0004    0.0004
            Z    -0.0001    0.0000    0.0000
 AT.  32 C  X     0.0000    0.0001   -0.0001
            Y    -0.0000    0.0000    0.0001
            Z    -0.0000    0.0000   -0.0000
 AT.  33 C  X    -0.0012    0.0006    0.0003
            Y     0.0156   -0.0003   -0.0004
            Z     0.0001   -0.0000   -0.0000
 AT.  34 C  X    -0.0000    0.0001    0.0001
            Y     0.0000   -0.0001   -0.0001
            Z    -0.0000   -0.0000   -0.0000
 AT.  35 C  X     0.0015   -0.0006   -0.0003
            Y    -0.0157    0.0003    0.0004
            Z    -0.0000    0.0000    0.0000
 AT.  36 C  X    -0.0001    0.0091   -0.0127
            Y     0.0006    0.0129    0.0094
            Z     0.0000    0.0001    0.0001
 AT.  37 C  X     0.0002   -0.0091    0.0128
            Y    -0.0007   -0.0129   -0.0094
            Z     0.0000   -0.0000    0.0001
 AT.  38 C  X    -0.0002    0.0092   -0.0130
            Y     0.0006    0.0127    0.0091
            Z     0.0000   -0.0000    0.0002
 AT.  39 C  X     0.0001   -0.0093    0.0131
            Y    -0.0006   -0.0125   -0.0092
            Z    -0.0000   -0.0001   -0.0002
 AT.  40 C  X    -0.0002    0.0091   -0.0129
            Y     0.0006    0.0128    0.0092
            Z    -0.0000   -0.0000   -0.0001
 AT.  41 C  X     0.0003   -0.0091    0.0129
            Y    -0.0006   -0.0127   -0.0092
            Z    -0.0000   -0.0000   -0.0001
 AT.  42 C  X     0.0000    0.0000   -0.0001
            Y    -0.0000    0.0001    0.0000
            Z    -0.0000   -0.0000    0.0000
 AT.  43 C  X    -0.0009    0.0005    0.0003
            Y     0.0162   -0.0005   -0.0005
            Z    -0.0001    0.0000    0.0000
 AT.  44 C  X    -0.0000   -0.0001    0.0001
            Y     0.0000   -0.0002   -0.0000
            Z    -0.0000   -0.0000    0.0000
 AT.  45 C  X     0.0009   -0.0005   -0.0003
            Y    -0.0160    0.0004    0.0005
            Z     0.0001   -0.0000   -0.0000
 AT.  46 C  X     0.0000    0.0000   -0.0001
            Y    -0.0000    0.0001    0.0001
            Z    -0.0000    0.0000   -0.0000
 AT.  47 C  X    -0.0012    0.0006    0.0003
            Y     0.0158   -0.0003   -0.0005
            Z     0.0001   -0.0000   -0.0000
 AT.  48 C  X    -0.0000   -0.0001    0.0001
            Y     0.0000    0.0001   -0.0001
            Z    -0.0000   -0.0000    0.0000
 AT.  49 C  X     0.0007   -0.0005   -0.0003
            Y    -0.0159    0.0003    0.0005
            Z    -0.0002    0.0000    0.0000
 AT.  50 C  X     0.0000    0.0000   -0.0001
            Y    -0.0000    0.0000    0.0001
            Z    -0.0000    0.0000   -0.0000
 AT.  51 C  X    -0.0007    0.0005    0.0003
            Y     0.0159   -0.0004   -0.0005
            Z     0.0002   -0.0000   -0.0000
 AT.  52 C  X    -0.0000    0.0002    0.0001
            Y     0.0000   -0.0001   -0.0001
            Z     0.0000   -0.0000    0.0000
 AT.  53 C  X     0.0008   -0.0005   -0.0003
            Y    -0.0162    0.0004    0.0005
            Z    -0.0001    0.0000    0.0000
 AT.  54 C  X    -0.0002    0.0090   -0.0128
            Y     0.0006    0.0129    0.0094
            Z     0.0000   -0.0000    0.0001
 AT.  55 C  X     0.0001   -0.0092    0.0126
            Y    -0.0007   -0.0130   -0.0094
            Z     0.0000    0.0001    0.0001
 AT.  56 C  X    -0.0001    0.0094   -0.0127
            Y     0.0006    0.0128    0.0093
            Z     0.0000    0.0001    0.0001
 AT.  57 C  X     0.0002   -0.0094    0.0126
            Y    -0.0007   -0.0128   -0.0093
            Z    -0.0000    0.0000   -0.0001
 AT.  58 C  X    -0.0001    0.0093   -0.0126
            Y     0.0007    0.0132    0.0094
            Z    -0.0000   -0.0000   -0.0000
 AT.  59 C  X     0.0001   -0.0094    0.0126
            Y    -0.0007   -0.0131   -0.0094
            Z    -0.0000   -0.0000   -0.0000
 AT.  60 C  X     0.0000    0.0000   -0.0001
            Y    -0.0000    0.0000    0.0001
            Z    -0.0000   -0.0000    0.0000
 AT.  61 C  X    -0.0012    0.0005    0.0003
            Y     0.0157   -0.0004   -0.0004
            Z     0.0001    0.0000    0.0000
 AT.  62 C  X    -0.0000   -0.0001    0.0001
            Y     0.0000   -0.0002   -0.0000
            Z    -0.0000   -0.0000   -0.0000
 AT.  63 C  X     0.0009   -0.0005   -0.0003
            Y    -0.0157    0.0004    0.0005
            Z    -0.0001   -0.0000    0.0000
 AT.  64 C  X     0.0000    0.0001   -0.0001
            Y    -0.0000    0.0001    0.0000
            Z    -0.0000    0.0000   -0.0000
 AT.  65 C  X    -0.0008    0.0005    0.0003
            Y     0.0158   -0.0003   -0.0005
            Z    -0.0001    0.0000    0.0000
 AT.  66 C  X    -0.0000   -0.0000    0.0001
            Y     0.0000    0.0001   -0.0001
            Z    -0.0000   -0.0000    0.0000
 AT.  67 C  X     0.0012   -0.0006   -0.0003
            Y    -0.0155    0.0003    0.0004
            Z     0.0001   -0.0000   -0.0000
 AT.  68 C  X     0.0000    0.0000   -0.0001
            Y    -0.0000    0.0000    0.0001
            Z    -0.0000    0.0000   -0.0000
 AT.  69 C  X    -0.0013    0.0006    0.0004
            Y     0.0157   -0.0004   -0.0004
            Z    -0.0001    0.0000    0.0000
 AT.  70 C  X    -0.0000    0.0001    0.0001
            Y     0.0000   -0.0001   -0.0000
            Z    -0.0000   -0.0000    0.0000
 AT.  71 C  X     0.0012   -0.0005   -0.0003
            Y    -0.0156    0.0004    0.0004
            Z     0.0001    0.0000   -0.0000
 AT.  72 C  X    -0.0001    0.0093   -0.0129
            Y     0.0006    0.0126    0.0091
            Z    -0.0000   -0.0001   -0.0001
 AT.  73 C  X     0.0002   -0.0092    0.0126
            Y    -0.0006   -0.0127   -0.0093
            Z     0.0000    0.0001   -0.0001
 AT.  74 C  X    -0.0002    0.0093   -0.0127
            Y     0.0007    0.0129    0.0093
            Z    -0.0000    0.0000   -0.0001
 AT.  75 C  X     0.0001   -0.0094    0.0127
            Y    -0.0007   -0.0128   -0.0092
            Z     0.0000    0.0001    0.0001
 AT.  76 C  X    -0.0002    0.0093   -0.0125
            Y     0.0006    0.0127    0.0091
            Z     0.0000   -0.0001    0.0000
 AT.  77 C  X     0.0002   -0.0093    0.0125
            Y    -0.0006   -0.0127   -0.0091
            Z     0.0000   -0.0001    0.0001

 ESTIMATED NUMBER OF IMAGINARY FREQS    1


 *******************************************************************************

 VIBRATIONAL TEMPERATURES (K) [MODE NUMBER;IRREP]

 TO MODES
    17.8 [   5;A  ]    32.8 [   6;A  ]    39.3 [   7;A  ]    54.1 [   8;A  ]
    55.2 [   9;A  ]    55.8 [  10;A  ]    57.9 [  11;A  ]   121.8 [  12;A  ]
   124.0 [  13;A  ]   140.8 [  14;A  ]   189.7 [  15;A  ]   304.1 [  16;A  ]
   304.2 [  17;A  ]   304.8 [  18;A  ]   304.9 [  19;A  ]   305.7 [  20;A  ]
   306.1 [  21;A  ]   306.7 [  22;A  ]   308.1 [  23;A  ]   309.2 [  24;A  ]
   309.7 [  25;A  ]   315.8 [  26;A  ]   323.3 [  27;A  ]   323.8 [  28;A  ]
   324.0 [  29;A  ]   325.3 [  30;A  ]   326.7 [  31;A  ]   332.2 [  32;A  ]
   339.6 [  33;A  ]   410.5 [  34;A  ]   503.2 [  35;A  ]   516.9 [  36;A  ]
   524.4 [  37;A  ]   700.2 [  38;A  ]   700.9 [  39;A  ]   701.2 [  40;A  ]
   701.4 [  41;A  ]   703.0 [  42;A  ]   703.4 [  43;A  ]   706.6 [  44;A  ]
   708.0 [  45;A  ]   708.2 [  46;A  ]   752.0 [  47;A  ]   760.9 [  48;A  ]
   767.6 [  49;A  ]   774.2 [  50;A  ]   776.1 [  51;A  ]   776.1 [  52;A  ]
   776.7 [  53;A  ]   777.8 [  54;A  ]   778.7 [  55;A  ]   779.1 [  56;A  ]
   780.0 [  57;A  ]   780.4 [  58;A  ]   781.9 [  59;A  ]   788.6 [  60;A  ]
   788.7 [  61;A  ]   788.9 [  62;A  ]   868.4 [  63;A  ]   871.7 [  64;A  ]
   871.9 [  65;A  ]   873.9 [  66;A  ]   874.2 [  67;A  ]   874.8 [  68;A  ]
   876.1 [  69;A  ]   876.4 [  70;A  ]   876.6 [  71;A  ]   877.1 [  72;A  ]
   877.3 [  73;A  ]   878.0 [  74;A  ]   878.4 [  75;A  ]   878.4 [  76;A  ]
   878.5 [  77;A  ]   878.5 [  78;A  ]   878.6 [  79;A  ]   879.7 [  80;A  ]
   880.5 [  81;A  ]   880.8 [  82;A  ]   882.8 [  83;A  ]   885.7 [  84;A  ]
   892.4 [  85;A  ]   896.9 [  86;A  ]   900.8 [  87;A  ]   901.1 [  88;A  ]
   901.5 [  89;A  ]   901.6 [  90;A  ]   902.6 [  91;A  ]   911.8 [  92;A  ]
   912.2 [  93;A  ]   912.3 [  94;A  ]   912.4 [  95;A  ]   912.5 [  96;A  ]
   912.8 [  97;A  ]   913.2 [  98;A  ]   913.4 [  99;A  ]   914.1 [ 100;A  ]
   937.9 [ 101;A  ]   939.4 [ 102;A  ]   940.5 [ 103;A  ]   948.7 [ 104;A  ]
   955.9 [ 105;A  ]   956.3 [ 106;A  ]   956.4 [ 107;A  ]   956.7 [ 108;A  ]
   956.9 [ 109;A  ]   957.1 [ 110;A  ]   964.1 [ 111;A  ]   965.1 [ 112;A  ]
   976.9 [ 113;A  ]   980.4 [ 114;A  ]   982.1 [ 115;A  ]   982.5 [ 116;A  ]
  1128.9 [ 117;A  ]  1251.4 [ 118;A  ]  1251.8 [ 119;A  ]  1252.0 [ 120;A  ]
  1252.5 [ 121;A  ]  1252.6 [ 122;A  ]  1253.0 [ 123;A  ]  1254.7 [ 124;A  ]
  1255.4 [ 125;A  ]  1255.4 [ 126;A  ]  1255.6 [ 127;A  ]  1255.9 [ 128;A  ]
  1256.4 [ 129;A  ]  1258.3 [ 130;A  ]  1259.7 [ 131;A  ]  1259.9 [ 132;A  ]
  1260.0 [ 133;A  ]  1260.5 [ 134;A  ]  1260.6 [ 135;A  ]  1397.7 [ 136;A  ]
  1399.0 [ 137;A  ]  1404.8 [ 138;A  ]  1405.1 [ 139;A  ]  1405.8 [ 140;A  ]
  1406.2 [ 141;A  ]  1660.8 [ 142;A  ]  1664.6 [ 143;A  ]  1674.9 [ 144;A  ]
  1775.4 [ 145;A  ]  1776.8 [ 146;A  ]  1813.2 [ 147;A  ]  1822.6 [ 148;A  ]
  1824.0 [ 149;A  ]  1825.5 [ 150;A  ]  1827.7 [ 151;A  ]  1828.0 [ 152;A  ]
  1828.5 [ 153;A  ]  1830.1 [ 154;A  ]  1831.1 [ 155;A  ]  1835.1 [ 156;A  ]
  1838.0 [ 157;A  ]  1839.0 [ 158;A  ]  1929.6 [ 159;A  ]  1935.1 [ 160;A  ]
  1936.6 [ 161;A  ]  1941.7 [ 162;A  ]  1942.3 [ 163;A  ]  1947.9 [ 164;A  ]
  1951.9 [ 165;A  ]  1952.7 [ 166;A  ]  1952.8 [ 167;A  ]  2009.7 [ 168;A  ]
  2010.5 [ 169;A  ]  2029.0 [ 170;A  ]  2029.2 [ 171;A  ]  2032.7 [ 172;A  ]
  2033.0 [ 173;A  ]  2033.1 [ 174;A  ]  2033.6 [ 175;A  ]  2034.1 [ 176;A  ]
  2034.4 [ 177;A  ]  2036.9 [ 178;A  ]  2037.2 [ 179;A  ]  2037.9 [ 180;A  ]
  2122.4 [ 181;A  ]  2122.5 [ 182;A  ]  2123.1 [ 183;A  ]  2123.2 [ 184;A  ]
  2123.3 [ 185;A  ]  2123.4 [ 186;A  ]  2126.2 [ 187;A  ]  2126.8 [ 188;A  ]
  2126.9 [ 189;A  ]  2189.8 [ 190;A  ]  2190.6 [ 191;A  ]  2190.7 [ 192;A  ]
  2191.0 [ 193;A  ]  2191.1 [ 194;A  ]  2191.1 [ 195;A  ]  2193.7 [ 196;A  ]
  2194.0 [ 197;A  ]  2195.2 [ 198;A  ]  2195.9 [ 199;A  ]  2196.3 [ 200;A  ]
  2196.5 [ 201;A  ]  2196.5 [ 202;A  ]  2197.1 [ 203;A  ]  2197.2 [ 204;A  ]
  2197.2 [ 205;A  ]  2197.3 [ 206;A  ]  2198.8 [ 207;A  ]  2291.4 [ 208;A  ]
  2293.8 [ 209;A  ]  2330.2 [ 210;A  ]  2332.3 [ 211;A  ]  2336.3 [ 212;A  ]
  2338.2 [ 213;A  ]  2341.1 [ 214;A  ]  2341.3 [ 215;A  ]  2342.4 [ 216;A  ]
  2343.0 [ 217;A  ]  2343.8 [ 218;A  ]  2343.8 [ 219;A  ]  2345.2 [ 220;A  ]
  2346.4 [ 221;A  ]  2349.9 [ 222;A  ]  2350.5 [ 223;A  ]  2351.0 [ 224;A  ]
  2351.1 [ 225;A  ]  2351.2 [ 226;A  ]  2351.4 [ 227;A  ]  2360.2 [ 228;A  ]
  2389.5 [ 229;A  ]  2412.5 [ 230;A  ]  2416.0 [ 231;A  ]

 *******************************************************************************

 HARMONIC VIBRATIONAL CONTRIBUTIONS TO THERMODYNAMIC FUNCTIONS AT GIVEN
 TEMPERATURE AND PRESSURE:

 (EL = ELECTRONIC ENERGY
  E0 = ZERO-POINT ENERGY
  ET = THERMAL CONTRIBUTION TO THE VIBRATIONAL ENERGY
  PV = PRESSURE * VOLUME
  TS = TEMPERATURE * ENTROPY)

                          AU/CELL             EV/CELL                 KJ/MOL
 EL            :   -3156.464933335800  -85891.777489655899    -8287297.51458112
 E0            :       0.471771038392      12.837542602697        1238.63468674

 
 WARNING **** THERMOFRQ **** PV TERM COMPUTED ONLY FOR 3D SYSTEMS

 *******************************************************************************

 THERMODYNAMIC FUNCTIONS WITH VIBRATIONAL CONTRIBUTIONS

 AT (T =  298.15 K, P =   0.10132500E+00 MPA):

                          AU/CELL             EV/CELL                 KJ/MOL
 ET            :       0.035110705618       0.955410872023          92.18314461
 PV            :       0.000000000000       0.000000000000           0.00000000
 TS            :       0.065269570389       1.776075304201         171.36523291
 ET+PV-TS      :      -0.030158864770      -0.820664432178         -79.18208830
 EL+E0+ET+PV-TS:   -3156.023321162178  -85879.760611485370    -8286138.06198267

 OTHER THERMODYNAMIC FUNCTIONS:

                      mHARTREE/(CELL*K)     mEV/(CELL*K)              J/(MOL*K)
 ENTROPY       :       0.218915211768       5.956985759521         574.76180750
 HEAT CAPACITY :       0.261544613378       7.116990750833         686.68528565

 *******************************************************************************
 TTTTTTTTTTTTTTTTTTTTTTTTTTTTTT END         TELAPSE   323233.51 TCPU   321454.36
 EEEEEEEEEE TERMINATION  DATE 13 05 2024 TIME 05:19:53.6
